      -----------------------------------------------------------      
     |                   =====================                   |     
     |                           x T B                           |     
     |                   =====================                   |     
     |                         S. Grimme                         |     
     |          Mulliken Center for Theoretical Chemistry        |     
     |                    University of Bonn                     |     
      -----------------------------------------------------------      

   * xtb version 6.7.1 (edcfbbe) compiled by 'albert@albert-system' on 2024-07-22

   xtb is free software: you can redistribute it and/or modify it under
   the terms of the GNU Lesser General Public License as published by
   the Free Software Foundation, either version 3 of the License, or
   (at your option) any later version.
   
   xtb is distributed in the hope that it will be useful,
   but WITHOUT ANY WARRANTY; without even the implied warranty of
   MERCHANTABILITY or FITNESS FOR A PARTICULAR PURPOSE.  See the
   GNU Lesser General Public License for more details.
   
   Cite this work as:
   * C. Bannwarth, E. Caldeweyher, S. Ehlert, A. Hansen, P. Pracht,
     J. Seibert, S. Spicher, S. Grimme, WIREs Comput. Mol. Sci., 2020, 11,
     e01493. DOI: 10.1002/wcms.1493
   
   for GFN2-xTB:
   * C. Bannwarth, S. Ehlert and S. Grimme., J. Chem. Theory Comput., 2019,
     15, 1652-1671. DOI: 10.1021/acs.jctc.8b01176
   for GFN1-xTB:
   * S. Grimme, C. Bannwarth, P. Shushkov, J. Chem. Theory Comput., 2017,
     13, 1989-2009. DOI: 10.1021/acs.jctc.7b00118
   for GFN0-xTB:
   * P. Pracht, E. Caldeweyher, S. Ehlert, S. Grimme, ChemRxiv, 2019, preprint.
     DOI: 10.26434/chemrxiv.8326202.v1
   for GFN-FF:
   * S. Spicher and S. Grimme, Angew. Chem. Int. Ed., 2020, 59, 15665-15673.
     DOI: 10.1002/anie.202004239
   
   for ALPB and GBSA implicit solvation:
   * S. Ehlert, M. Stahn, S. Spicher, S. Grimme, J. Chem. Theory Comput.,
     2021, 17, 4250-4261. DOI: 10.1021/acs.jctc.1c00471
   
   for ddCOSMO and CPCM-X implicit solvation:
   * M. Stahn, S. Ehlert, S. Grimme, J. Phys. Chem. A,
     2023, XX, XXXX-XXXX. DOI: 10.1021/acs.jpca.3c04382
   
   for DFT-D4:
   * E. Caldeweyher, C. Bannwarth and S. Grimme, J. Chem. Phys., 2017,
     147, 034112. DOI: 10.1063/1.4993215
   * E. Caldeweyher, S. Ehlert, A. Hansen, H. Neugebauer, S. Spicher,
     C. Bannwarth and S. Grimme, J. Chem. Phys., 2019, 150, 154122.
     DOI: 10.1063/1.5090222
   * E. Caldeweyher, J.-M. Mewes, S. Ehlert and S. Grimme, Phys. Chem. Chem. Phys.
     2020, 22, 8499-8512. DOI: 10.1039/D0CP00502A
   
   for sTDA-xTB:
   * S. Grimme and C. Bannwarth, J. Chem. Phys., 2016, 145, 054103.
     DOI: 10.1063/1.4959605
   
   in the mass-spec context:
   * V. Asgeirsson, C. Bauer and S. Grimme, Chem. Sci., 2017, 8, 4879.
     DOI: 10.1039/c7sc00601b
   * J. Koopman and S. Grimme, ACS Omega 2019, 4, 12, 15120-15133.
     DOI: 10.1021/acsomega.9b02011
   
   for metadynamics refer to:
   * S. Grimme, J. Chem. Theory Comput., 2019, 155, 2847-2862
     DOI: 10.1021/acs.jctc.9b00143
   
   for SPH calculations refer to:
   * S. Spicher and S. Grimme, J. Chem. Theory Comput., 2021, 17, 1701-1714
     DOI: 10.1021/acs.jctc.0c01306
   
   for ONIOM refer to:
   * C. Plett, A. Katbashev, S. Ehlert, S. Grimme, M. Bursch,
     Phys. Chem. Chem. Phys., 2023, 25, 17860-17868. DOI: 10.1039/D3CP02178E
   
   for DIPRO refer to:
   * J. Kohn, N. Gildemeister, S. Grimme, D. Fazzi, A. Hansen,
     J. Chem. Phys., 2023, just accepted.
   
   for PTB refer to:
   * S. Grimme, M. Mueller, A. Hansen, J. Chem. Phys., 2023, 158, 124111.
     DOI: 10.1063/5.0137838
   
   with help from (in alphabetical order)
   P. Atkinson, C. Bannwarth, F. Bohle, G. Brandenburg, E. Caldeweyher
   M. Checinski, S. Dohm, S. Ehlert, S. Ehrlich, I. Gerasimov, C. Hölzer
   A. Katbashev, J. Kohn, J. Koopman, C. Lavigne, S. Lehtola, F. März, M. Müller,
   F. Musil, H. Neugebauer, J. Pisarek, C. Plett, P. Pracht, F. Pultar,
   J. Seibert, P. Shushkov, S. Spicher, M. Stahn, M. Steiner, T. Strunk,
   J. Stückrath, T. Rose, and J. Unsleber
   
 * started run on 2026/01/27 at 11:22:37.255     
   ID    Z sym.   atoms
    1    8 O      1, 3
    2    6 C      2, 6-19, 21, 22, 24-54
    3   28 Ni     4
    4    7 N      5, 20, 23
    5    1 H      55-97
constraining bond 5 4 to    1.8525000 Å, actual value:    1.9633666 Å
constraining bond 3 4 to    1.8050000 Å, actual value:    1.9446179 Å
constraining bond 23 4 to    1.8525000 Å, actual value:    1.8573975 Å
constraining bond 20 4 to    1.8525000 Å, actual value:    1.9632420 Å
constraining angle 3 4 5 to  180.0000000°, actual value:  138.4075422°
constraining angle 3 4 20 to   90.0000000°, actual value:   90.3885321°
constraining angle 20 4 23 to  180.0000000°, actual value:  144.7139364°

           -------------------------------------------------
          |                Calculation Setup                |
           -------------------------------------------------

          program call               : /home/henryteahan/opt/xtb-6.7.1/xtb-dist/bin/xtb sep_embed_final.xyz --opt verytight --iterations 1000 --input constrain2.inp --gfn2 --parallel 8 --chrg 0
          coordinate file            : sep_embed_final.xyz
          omp threads                :                     8


molecular fragmentation (1/2 indicates fragments):
111111111111111111211111111111111111111222222222222222111111111112221111
1111111111111122222222222
# atoms in fragment 1/2:    67    30
 fragment masses (1/2) :      546.29      206.28
CMA distance (Bohr)    :  16.395
constraining FC (au)   :  0.2000

           -------------------------------------------------
          |                 G F N 2 - x T B                 |
           -------------------------------------------------

        Reference                      10.1021/acs.jctc.8b01176
      * Hamiltonian:
        H0-scaling (s, p, d)           1.850000    2.230000    2.230000
        zeta-weighting                 0.500000
      * Dispersion:
        s8                             2.700000
        a1                             0.520000
        a2                             5.000000
        s9                             5.000000
      * Repulsion:
        kExp                           1.500000    1.000000
        rExp                           1.000000
      * Coulomb:
        alpha                          2.000000
        third order                    shell-resolved
        anisotropic                    true
        a3                             3.000000
        a5                             4.000000
        cn-shift                       1.200000
        cn-exp                         4.000000
        max-rad                        5.000000


          ...................................................
          :                      SETUP                      :
          :.................................................:
          :  # basis functions                 265          :
          :  # atomic orbitals                 264          :
          :  # shells                          152          :
          :  # electrons                       272          :
          :  max. iterations                  1000          :
          :  Hamiltonian                  GFN2-xTB          :
          :  restarted?                      false          :
          :  GBSA solvation                  false          :
          :  PC potential                    false          :
          :  electronic temp.          300.0000000     K    :
          :  accuracy                    1.0000000          :
          :  -> integral cutoff          0.2500000E+02      :
          :  -> integral neglect         0.1000000E-07      :
          :  -> SCF convergence          0.1000000E-05 Eh   :
          :  -> wf. convergence          0.1000000E-03 e    :
          :  Broyden damping             0.4000000          :
          :  net charge                          0          :
          :  unpaired electrons                  0          :
          ...................................................

 iter      E             dE          RMSdq      gap      omega  full diag
   1   -147.6550819 -0.147655E+03  0.496E+00    0.17       0.0  T
   2   -146.7241154  0.930967E+00  0.437E+00    0.29       1.0  T
   3   -147.6443347 -0.920219E+00  0.294E+00    0.19       1.0  T
   4   -147.5898556  0.544791E-01  0.289E+00    0.64       1.0  T
   5   -147.5136859  0.761697E-01  0.220E+00    0.14       1.0  T
   6   -147.3471665  0.166519E+00  0.247E+00    0.82       1.0  T
   7   -147.4497762 -0.102610E+00  0.286E+00    0.60       1.0  T
   8   -147.3944717  0.553045E-01  0.219E+00    0.39       1.0  T
   9   -148.0141650 -0.619693E+00  0.177E+00    0.10       1.0  T
  10   -148.2376578 -0.223493E+00  0.112E+00    0.05       1.0  T
  11   -148.1087881  0.128870E+00  0.139E+00    0.04       1.0  T
  12   -148.0560958  0.526922E-01  0.152E+00    0.06       1.0  T
  13   -148.0790607 -0.229649E-01  0.142E+00    0.02       1.0  T
  14   -148.0783132  0.747501E-03  0.144E+00    0.05       1.0  T
  15   -148.0808897 -0.257653E-02  0.146E+00    0.08       1.0  T
  16   -148.0771067  0.378306E-02  0.140E+00    0.01       1.0  T
  17   -148.1023948 -0.252881E-01  0.138E+00    0.10       1.0  T
  18   -148.1890543 -0.866594E-01  0.841E-01    0.02       1.0  T
  19   -148.0943644  0.946899E-01  0.139E+00    0.04       1.0  T
  20   -148.0704422  0.239222E-01  0.145E+00    0.01       1.0  T
  21   -147.9026352  0.167807E+00  0.153E+00    0.04       1.0  T
  22   -148.2534018 -0.350767E+00  0.622E-01    0.00       1.0  T
  23   -148.2911582 -0.377564E-01  0.540E-01    0.01       1.0  T
  24   -148.3256002 -0.344420E-01  0.228E-01    0.01       1.0  T
  25   -148.3336526 -0.805238E-02  0.586E-02    0.01       1.0  T
  26   -148.3321350  0.151761E-02  0.104E-01    0.01       1.0  T
  27   -148.3331058 -0.970829E-03  0.786E-02    0.02       1.0  T
  28   -148.3334854 -0.379552E-03  0.583E-02    0.02       1.0  T
  29   -148.3338074 -0.321997E-03  0.310E-02    0.01       1.0  T
  30   -148.3339153 -0.107933E-03  0.114E-02    0.01       1.0  T
  31   -148.3339307 -0.153961E-04  0.442E-03    0.01       2.3  T
  32   -148.3339329 -0.224679E-05  0.196E-03    0.01       5.2  T
  33   -148.3339332 -0.248663E-06  0.139E-03    0.01       7.3  T
  34   -148.3339331  0.107960E-06  0.168E-03    0.01       6.1  T
  35   -148.3339334 -0.324918E-06  0.453E-04    0.01      22.4  T
  36   -148.3339334 -0.343465E-07  0.277E-04    0.01      36.6  T

   *** convergence criteria satisfied after 36 iterations ***

         #    Occupation            Energy/Eh            Energy/eV
      -------------------------------------------------------------
         1        2.0000           -0.7027271             -19.1222
       ...           ...                  ...                  ...
       130        2.0000           -0.3856772             -10.4948
       131        2.0000           -0.3815304             -10.3820
       132        2.0000           -0.3732380             -10.1563
       133        2.0000           -0.3561274              -9.6907
       134        2.0000           -0.3505244              -9.5383
       135        1.4463           -0.3390792              -9.2268
       136        1.1631           -0.3384797              -9.2105 (HOMO)
       137        0.9039           -0.3379837              -9.1970 (LUMO)
       138        0.4867           -0.3370891              -9.1727
       139                         -0.3071159              -8.3570
       140                         -0.2769003              -7.5348
       141                         -0.2747362              -7.4760
       ...                                ...                  ...
       264                          2.1040824              57.2550
      -------------------------------------------------------------
                  HL-Gap            0.0004960 Eh            0.0135 eV
             Fermi-level           -0.3381669 Eh           -9.2020 eV

 SCC (total)                   0 d,  0 h,  0 min,  0.358 sec
 SCC setup                      ...        0 min,  0.000 sec (  0.139%)
 Dispersion                     ...        0 min,  0.002 sec (  0.679%)
 classical contributions        ...        0 min,  0.000 sec (  0.028%)
 integral evaluation            ...        0 min,  0.011 sec (  3.178%)
 iterations                     ...        0 min,  0.322 sec ( 89.747%)
 molecular gradient             ...        0 min,  0.021 sec (  5.944%)
 printout                       ...        0 min,  0.001 sec (  0.270%)

         :::::::::::::::::::::::::::::::::::::::::::::::::::::
         ::                     SUMMARY                     ::
         :::::::::::::::::::::::::::::::::::::::::::::::::::::
         :: total energy            -145.722957906426 Eh    ::
         :: gradient norm              0.365783825746 Eh/a0 ::
         :: HOMO-LUMO gap              0.013497052907 eV    ::
         ::.................................................::
         :: SCC energy              -148.329141362049 Eh    ::
         :: -> isotropic ES            0.090801471282 Eh    ::
         :: -> anisotropic ES          0.009699313943 Eh    ::
         :: -> anisotropic XC          0.081209653672 Eh    ::
         :: -> dispersion             -0.136321134691 Eh    ::
         :: repulsion energy           2.393447493505 Eh    ::
         :: add. restraining           0.212735962118 Eh    ::
         :: total charge               0.000000000001 e     ::
         :::::::::::::::::::::::::::::::::::::::::::::::::::::

      ----------------------------------------------------------- 
     |                   =====================                   |
     |                        A N C O P T                        |
     |                   =====================                   |
     |               Approximate Normal Coordinate               |
     |                Rational Function Optimizer                |
      ----------------------------------------------------------- 
      ----------------------------------------------------------- 
     |                   =====================                   |
     |                        A N C O P T                        |
     |                   =====================                   |
     |               Approximate Normal Coordinate               |
     |                Rational Function Optimizer                |
      ----------------------------------------------------------- 

          ...................................................
          :                      SETUP                      :
          :.................................................:
          :   optimization level         verytight          :
          :   max. optcycles                  1940          :
          :   ANC micro-cycles                  20          :
          :   degrees of freedom               285          :
          :.................................................:
          :   RF solver                   davidson          :
          :   write xtbopt.log                true          :
          :   linear?                        false          :
          :   energy convergence         0.1000000E-06 Eh   :
          :   grad. convergence          0.2000000E-03 Eh/α :
          :   maxmium RF displ.          1.0000000          :
          :   Hlow (freq-cutoff)         0.1000000E-01      :
          :   Hmax (freq-cutoff)         5.0000000          :
          :   S6 in model hess.         20.0000000          :
          ...................................................

generating ANC from exact Hessian ...
Using Lindh-Hessian (1995)
 Shifting diagonal of input Hessian by   1.009891372614002E-002
 Lowest  eigenvalues of input Hessian
    0.010000    0.010046    0.000000    0.000000    0.000000    0.000000
    0.000000    0.000000    0.010163    0.010178    0.010206    0.010252
    0.010278    0.010335    0.010378    0.010512    0.010551    0.010699
 Highest eigenvalues
    2.069906    2.086762    2.143578    2.144775    2.302438    2.353477
 

........................................................................
.............................. CYCLE    1 ..............................
........................................................................

 iter      E             dE          RMSdq      gap      omega  full diag
   1   -148.3339335 -0.148334E+03  0.121E-04    0.01       0.0  T
   2   -148.3339188  0.146717E-04  0.101E-02    0.01       1.0  T
   3   -148.3339333 -0.145567E-04  0.991E-04    0.01      10.2  T
   4   -148.3339332  0.103401E-06  0.102E-03    0.01       9.9  T
   5   -148.3339333 -0.429199E-07  0.850E-04    0.01      11.9  T
   6   -148.3339335 -0.177204E-06  0.466E-05    0.01     217.9  T
     SCC iter.                  ...        0 min,  0.057 sec
     gradient                   ...        0 min,  0.021 sec
 * total energy  :  -145.7229579 Eh     change       -0.9207753E-08 Eh
   gradient norm :     0.3657828 Eh/α   predicted     0.0000000E+00 (-100.00%)
   displ. norm   :     0.4962021 α      lambda       -0.1254110E+00
   maximum displ.:     0.1833908 α      in ANC's #90, #124, #68, ...

........................................................................
.............................. CYCLE    2 ..............................
........................................................................

 iter      E             dE          RMSdq      gap      omega  full diag
   1   -148.2545278 -0.148255E+03  0.705E-01    0.00       0.0  T
   2   -146.9006271  0.135390E+01  0.262E+00    0.07       1.0  T
   3   -148.0457384 -0.114511E+01  0.165E+00    0.20       1.0  T
   4   -147.5296407  0.516098E+00  0.203E+00    0.28       1.0  T
   5   -148.1504068 -0.620766E+00  0.932E-01    0.02       1.0  T
   6   -147.9288397  0.221567E+00  0.182E+00    0.21       1.0  T
   7   -148.1133865 -0.184547E+00  0.138E+00    0.10       1.0  T
   8   -147.8276279  0.285759E+00  0.186E+00    0.07       1.0  T
   9   -148.2186100 -0.390982E+00  0.738E-01    0.02       1.0  T
  10   -147.6009341  0.617676E+00  0.217E+00    0.14       1.0  T
  11   -147.7216347 -0.120701E+00  0.194E+00    0.11       1.0  T
  12   -148.3275154 -0.605881E+00  0.352E-01    0.02       1.0  T
  13   -148.3339628 -0.644740E-02  0.404E-01    0.04       1.0  T
  14   -148.3026403  0.313225E-01  0.638E-01    0.02       1.0  T
  15   -148.3539400 -0.512998E-01  0.159E-01    0.01       1.0  T
  16   -148.3531268  0.813237E-03  0.162E-01    0.01       1.0  T
  17   -148.3539500 -0.823211E-03  0.140E-01    0.01       1.0  T
  18   -148.3560663 -0.211634E-02  0.102E-01    0.01       1.0  T
  19   -148.3567098 -0.643450E-03  0.727E-02    0.01       1.0  T
  20   -148.3576690 -0.959182E-03  0.948E-03    0.01       1.1  T
  21   -148.3575431  0.125849E-03  0.264E-02    0.01       1.0  T
  22   -148.3576711 -0.127932E-03  0.791E-03    0.01       1.3  T
  23   -148.3576789 -0.779838E-05  0.237E-03    0.01       4.3  T
  24   -148.3576788  0.970212E-07  0.214E-03    0.01       4.7  T
  25   -148.3576795 -0.779002E-06  0.866E-04    0.01      11.7  T
  26   -148.3576796 -0.821450E-07  0.672E-04    0.01      15.1  T
     SCC iter.                  ...        0 min,  0.214 sec
     gradient                   ...        0 min,  0.024 sec
 * total energy  :  -145.8178336 Eh     change       -0.9487570E-01 Eh
   gradient norm :     0.1806870 Eh/α   predicted    -0.7822819E-01 ( -17.55%)
   displ. norm   :     0.5899105 α      lambda       -0.7409474E-01
   maximum displ.:     0.2353600 α      in ANC's #90, #68, #236, ...

........................................................................
.............................. CYCLE    3 ..............................
........................................................................

 iter      E             dE          RMSdq      gap      omega  full diag
   1   -148.3303066 -0.148330E+03  0.706E-01    0.04       0.0  T
   2   -148.0167633  0.313543E+00  0.185E+00    0.24       1.0  T
   3   -147.5233647  0.493399E+00  0.203E+00    0.28       1.0  T
   4   -148.0022362 -0.478871E+00  0.188E+00    0.06       1.0  T
   5   -148.1465051 -0.144269E+00  0.146E+00    0.18       1.0  T
   6   -147.9999001  0.146605E+00  0.174E+00    0.18       1.0  T
   7   -148.0339368 -0.340368E-01  0.164E+00    0.15       1.0  T
   8   -148.3879785 -0.354042E+00  0.301E-01    0.00       1.0  T
   9   -148.3721712  0.158073E-01  0.324E-01    0.02       1.0  T
  10   -148.2976854  0.744858E-01  0.603E-01    0.02       1.0  T
  11   -148.3352215 -0.375361E-01  0.633E-01    0.00       1.0  T
  12   -148.3930351 -0.578137E-01  0.116E-01    0.00       1.0  T
  13   -148.3679812  0.250540E-01  0.392E-01    0.00       1.0  T
  14   -148.3943018 -0.263206E-01  0.600E-02    0.00       1.0  T
  15   -148.3934612  0.840558E-03  0.874E-02    0.00       1.0  T
  16   -148.3946508 -0.118960E-02  0.462E-02    0.01       1.0  T
  17   -148.3942984  0.352390E-03  0.718E-02    0.00       1.0  T
  18   -148.3948752 -0.576769E-03  0.308E-02    0.01       1.0  T
  19   -148.3949897 -0.114501E-03  0.954E-03    0.01       1.1  T
  20   -148.3949932 -0.345514E-05  0.787E-03    0.01       1.3  T
  21   -148.3950026 -0.942876E-05  0.546E-03    0.01       1.9  T
  22   -148.3950063 -0.366851E-05  0.111E-03    0.01       9.2  T
  23   -148.3950062  0.938277E-08  0.839E-04    0.01      12.1  T
  24   -148.3950063 -0.491601E-07  0.829E-04    0.01      12.3  T
     SCC iter.                  ...        0 min,  0.203 sec
     gradient                   ...        0 min,  0.022 sec
 * total energy  :  -145.8737693 Eh     change       -0.5593565E-01 Eh
   gradient norm :     0.1196541 Eh/α   predicted    -0.4993970E-01 ( -10.72%)
   displ. norm   :     0.6768516 α      lambda       -0.5334030E-01
   maximum displ.:     0.2746565 α      in ANC's #90, #68, #236, ...

........................................................................
.............................. CYCLE    4 ..............................
........................................................................

 iter      E             dE          RMSdq      gap      omega  full diag
   1   -148.3199751 -0.148320E+03  0.104E+00    0.06       0.0  T
   2   -147.5499346  0.770041E+00  0.292E+00    0.18       1.0  T
   3   -148.0933269 -0.543392E+00  0.180E+00    1.01       1.0  T
   4   -148.1936336 -0.100307E+00  0.150E+00    0.13       1.0  T
   5   -148.2701519 -0.765183E-01  0.120E+00    0.11       1.0  T
   6   -148.2668003  0.335160E-02  0.108E+00    0.04       1.0  T
   7   -148.0229421  0.243858E+00  0.177E+00    0.10       1.0  T
   8   -147.9167729  0.106169E+00  0.194E+00    0.06       1.0  T
   9   -148.2937301 -0.376957E+00  0.106E+00    0.06       1.0  T
  10   -148.1742030  0.119527E+00  0.146E+00    0.25       1.0  T
  11   -148.4188422 -0.244639E+00  0.370E-01    0.01       1.0  T
  12   -148.3477478  0.710944E-01  0.840E-01    0.04       1.0  T
  13   -148.3604907 -0.127429E-01  0.767E-01    0.06       1.0  T
  14   -148.3520176  0.847308E-02  0.812E-01    0.05       1.0  T
  15   -148.4344061 -0.823885E-01  0.193E-01    0.02       1.0  T
  16   -148.4359720 -0.156585E-02  0.161E-01    0.01       1.0  T
  17   -148.4389511 -0.297917E-02  0.526E-02    0.01       1.0  T
  18   -148.4391636 -0.212431E-03  0.341E-02    0.01       1.0  T
  19   -148.4393093 -0.145774E-03  0.574E-03    0.01       1.8  T
  20   -148.4393123 -0.299063E-05  0.309E-03    0.01       3.3  T
  21   -148.4393136 -0.130592E-05  0.949E-04    0.00      10.7  T
  22   -148.4393016  0.120316E-04  0.980E-03    0.00       1.0  T
  23   -148.4393128 -0.111461E-04  0.256E-03    0.00       4.0  T
  24   -148.4393130 -0.269518E-06  0.238E-03    0.00       4.3  T
  25   -148.4393135 -0.483598E-06  0.136E-03    0.00       7.5  T
  26   -148.4393137 -0.230982E-06  0.135E-04    0.00      75.3  T
  27   -148.4393137 -0.268713E-08  0.262E-05    0.00     388.1  T
     SCC iter.                  ...        0 min,  0.231 sec
     gradient                   ...        0 min,  0.021 sec
 * total energy  :  -145.9200456 Eh     change       -0.4627636E-01 Eh
   gradient norm :     0.1362926 Eh/α   predicted    -0.3888851E-01 ( -15.96%)
   displ. norm   :     0.7889699 α      lambda       -0.5993314E-01
   maximum displ.:     0.3851953 α      in ANC's #68, #90, #183, ...

........................................................................
.............................. CYCLE    5 ..............................
........................................................................

 iter      E             dE          RMSdq      gap      omega  full diag
   1   -148.3110294 -0.148311E+03  0.125E+00    0.08       0.0  T
   2   -147.3688296  0.942200E+00  0.317E+00    0.09       1.0  T
   3   -148.1380338 -0.769204E+00  0.186E+00    1.04       1.0  T
   4   -147.6141726  0.523861E+00  0.255E+00    0.27       1.0  T
   5   -148.2071047 -0.592932E+00  0.158E+00    0.34       1.0  T
   6   -148.3897590 -0.182654E+00  0.919E-01    0.05       1.0  T
   7   -148.2304125  0.159346E+00  0.149E+00    0.18       1.0  T
   8   -148.3888018 -0.158389E+00  0.950E-01    0.04       1.0  T
   9   -148.0760579  0.312744E+00  0.177E+00    0.34       1.0  T
  10   -148.2369592 -0.160901E+00  0.139E+00    0.12       1.0  T
  11   -148.3540092 -0.117050E+00  0.109E+00    0.07       1.0  T
  12   -148.4838210 -0.129812E+00  0.307E-01    0.02       1.0  T
  13   -148.4774274  0.639362E-02  0.387E-01    0.03       1.0  T
  14   -148.4958040 -0.183766E-01  0.209E-02    0.00       1.0  T
  15   -148.4955484  0.255578E-03  0.490E-02    0.00       1.0  T
  16   -148.4955219  0.264915E-04  0.516E-02    0.01       1.0  T
  17   -148.4958243 -0.302424E-03  0.163E-02    0.00       1.0  T
  18   -148.4958275 -0.321292E-05  0.156E-02    0.00       1.0  T
  19   -148.4958547 -0.271293E-04  0.505E-03    0.00       2.0  T
  20   -148.4958501  0.455794E-05  0.787E-03    0.00       1.3  T
  21   -148.4958578 -0.766379E-05  0.833E-04    0.00      12.2  T
  22   -148.4958576  0.153894E-06  0.136E-03    0.00       7.4  T
  23   -148.4958578 -0.209214E-06  0.471E-04    0.00      21.6  T
  24   -148.4958579 -0.282489E-07  0.144E-04    0.00      70.6  T
     SCC iter.                  ...        0 min,  0.187 sec
     gradient                   ...        0 min,  0.020 sec
 * total energy  :  -145.9662890 Eh     change       -0.4624338E-01 Eh
   gradient norm :     0.1486639 Eh/α   predicted    -0.4862000E-01 (   5.14%)
   displ. norm   :     0.6874543 α      lambda       -0.4436254E-01
   maximum displ.:     0.3155789 α      in ANC's #68, #61, #90, ...

........................................................................
.............................. CYCLE    6 ..............................
........................................................................

 iter      E             dE          RMSdq      gap      omega  full diag
   1   -148.4754910 -0.148475E+03  0.699E-01    0.04       0.0  T
   2   -148.1684012  0.307090E+00  0.183E+00    0.21       1.0  T
   3   -147.6560204  0.512381E+00  0.253E+00    0.30       1.0  T
   4   -148.1089606 -0.452940E+00  0.184E+00    0.03       1.0  T
   5   -148.2875243 -0.178564E+00  0.134E+00    0.10       1.0  T
   6   -148.2728034  0.147209E-01  0.145E+00    0.16       1.0  T
   7   -148.1978216  0.749818E-01  0.156E+00    0.16       1.0  T
   8   -148.3291852 -0.131364E+00  0.131E+00    0.03       1.0  T
   9   -148.4043424 -0.751572E-01  0.971E-01    0.07       1.0  T
  10   -148.5168510 -0.112509E+00  0.291E-01    0.02       1.0  T
  11   -148.5218729 -0.502193E-02  0.228E-01    0.01       1.0  T
  12   -148.5286555 -0.678260E-02  0.159E-02    0.00       1.0  T
  13   -148.5285714  0.841154E-04  0.274E-02    0.00       1.0  T
  14   -148.5285963 -0.248822E-04  0.274E-02    0.00       1.0  T
  15   -148.5286764 -0.801069E-04  0.105E-02    0.00       1.0  T
  16   -148.5286443  0.321026E-04  0.187E-02    0.00       1.0  T
  17   -148.5286900 -0.457441E-04  0.101E-03    0.00      10.1  T
  18   -148.5286874  0.258069E-05  0.459E-03    0.00       2.2  T
  19   -148.5286898 -0.236844E-05  0.148E-03    0.00       6.8  T
  20   -148.5286901 -0.313774E-06  0.276E-04    0.00      36.8  T
  21   -148.5286901  0.231277E-07  0.536E-04    0.00      18.9  T
     SCC iter.                  ...        0 min,  0.153 sec
     gradient                   ...        0 min,  0.020 sec
 * total energy  :  -145.9973318 Eh     change       -0.3104277E-01 Eh
   gradient norm :     0.1071853 Eh/α   predicted    -0.3266401E-01 (   5.22%)
   displ. norm   :     0.6367235 α      lambda       -0.3088602E-01
   maximum displ.:     0.3440777 α      in ANC's #68, #61, #37, ...

........................................................................
.............................. CYCLE    7 ..............................
........................................................................

 iter      E             dE          RMSdq      gap      omega  full diag
   1   -148.5160723 -0.148516E+03  0.664E-01    0.03       0.0  T
   2   -147.5958206  0.920252E+00  0.275E+00    0.19       1.0  T
   3   -148.2336496 -0.637829E+00  0.172E+00    0.49       1.0  T
   4   -148.3430378 -0.109388E+00  0.144E+00    0.05       1.0  T
   5   -148.1057480  0.237290E+00  0.178E+00    0.07       1.0  T
   6   -148.2305431 -0.124795E+00  0.159E+00    0.14       1.0  T
   7   -148.4469689 -0.216426E+00  0.988E-01    0.08       1.0  T
   8   -148.4312372  0.157317E-01  0.102E+00    0.08       1.0  T
   9   -148.3613028  0.699344E-01  0.135E+00    0.05       1.0  T
  10   -148.5613856 -0.200083E+00  0.252E-01    0.01       1.0  T
  11   -148.5674684 -0.608282E-02  0.117E-01    0.01       1.0  T
  12   -148.5582859  0.918254E-02  0.283E-01    0.02       1.0  T
  13   -148.5643833 -0.609738E-02  0.191E-01    0.01       1.0  T
  14   -148.5689871 -0.460385E-02  0.481E-02    0.00       1.0  T
  15   -148.5690443 -0.572156E-04  0.500E-02    0.01       1.0  T
  16   -148.5693473 -0.303002E-03  0.672E-03    0.00       1.5  T
  17   -148.5693268  0.205377E-04  0.130E-02    0.00       1.0  T
  18   -148.5692600  0.668241E-04  0.276E-02    0.00       1.0  T
  19   -148.5693513 -0.913799E-04  0.453E-03    0.00       2.2  T
  20   -148.5693460  0.531539E-05  0.810E-03    0.00       1.3  T
  21   -148.5693541 -0.802523E-05  0.104E-03    0.00       9.8  T
  22   -148.5693539  0.157063E-06  0.152E-03    0.00       6.7  T
  23   -148.5693541 -0.201094E-06  0.846E-04    0.00      12.0  T
  24   -148.5693542 -0.871031E-07  0.116E-04    0.00      87.6  T
     SCC iter.                  ...        0 min,  0.174 sec
     gradient                   ...        0 min,  0.020 sec
 * total energy  :  -146.0206499 Eh     change       -0.2331810E-01 Eh
   gradient norm :     0.0621341 Eh/α   predicted    -0.2170387E-01 (  -6.92%)
   displ. norm   :     0.6940965 α      lambda       -0.2205077E-01
   maximum displ.:     0.2685312 α      in ANC's #61, #68, #29, ...

........................................................................
.............................. CYCLE    8 ..............................
........................................................................

 iter      E             dE          RMSdq      gap      omega  full diag
   1   -148.5776837 -0.148578E+03  0.362E-01    0.01       0.0  T
   2   -148.2715961  0.306088E+00  0.165E+00    0.45       1.0  T
   3   -148.4916530 -0.220057E+00  0.816E-01    0.05       1.0  T
   4   -148.3315388  0.160114E+00  0.143E+00    0.19       1.0  T
   5   -148.0062600  0.325279E+00  0.181E+00    0.03       1.0  T
   6   -148.2102249 -0.203965E+00  0.167E+00    0.18       1.0  T
   7   -148.2428504 -0.326255E-01  0.160E+00    0.15       1.0  T
   8   -148.5729857 -0.330135E+00  0.321E-01    0.02       1.0  T
   9   -148.5750028 -0.201704E-02  0.277E-01    0.01       1.0  T
  10   -148.5820330 -0.703023E-02  0.187E-01    0.01       1.0  T
  11   -148.5859804 -0.394740E-02  0.646E-02    0.01       1.0  T
  12   -148.5768502  0.913017E-02  0.273E-01    0.02       1.0  T
  13   -148.5819923 -0.514210E-02  0.190E-01    0.01       1.0  T
  14   -148.5863993 -0.440693E-02  0.194E-02    0.00       1.0  T
  15   -148.5862396  0.159654E-03  0.408E-02    0.01       1.0  T
  16   -148.5864403 -0.200650E-03  0.648E-03    0.00       1.6  T
  17   -148.5864416 -0.138920E-05  0.547E-03    0.00       1.9  T
  18   -148.5864416  0.869626E-07  0.588E-03    0.00       1.7  T
  19   -148.5864455 -0.395200E-05  0.155E-03    0.00       6.6  T
  20   -148.5864458 -0.268554E-06  0.856E-04    0.00      11.9  T
  21   -148.5864458 -0.668358E-07  0.352E-04    0.00      28.9  T
     SCC iter.                  ...        0 min,  0.154 sec
     gradient                   ...        0 min,  0.020 sec
 * total energy  :  -146.0389078 Eh     change       -0.1825790E-01 Eh
   gradient norm :     0.0598678 Eh/α   predicted    -0.1633712E-01 ( -10.52%)
   displ. norm   :     0.7372173 α      lambda       -0.1892112E-01
   maximum displ.:     0.2998772 α      in ANC's #61, #29, #68, ...

........................................................................
.............................. CYCLE    9 ..............................
........................................................................

 iter      E             dE          RMSdq      gap      omega  full diag
   1   -148.5829853 -0.148583E+03  0.483E-01    0.01       0.0  T
   2   -148.2652111  0.317774E+00  0.172E+00    0.66       1.0  T
   3   -148.1666825  0.985287E-01  0.179E+00    0.28       1.0  T
   4   -147.7907807  0.375902E+00  0.235E+00    0.32       1.0  T
   5   -148.3844296 -0.593649E+00  0.138E+00    0.05       1.0  T
   6   -148.3449134  0.395162E-01  0.138E+00    0.11       1.0  T
   7   -148.4562329 -0.111320E+00  0.105E+00    0.09       1.0  T
   8   -148.5523451 -0.961121E-01  0.616E-01    0.04       1.0  T
   9   -148.5953493 -0.430043E-01  0.207E-01    0.02       1.0  T
  10   -148.5909175  0.443187E-02  0.267E-01    0.02       1.0  T
  11   -148.6007486 -0.983119E-02  0.165E-02    0.01       1.0  T
  12   -148.6002346  0.514060E-03  0.646E-02    0.01       1.0  T
  13   -148.6005919 -0.357297E-03  0.399E-02    0.01       1.0  T
  14   -148.6007679 -0.176016E-03  0.118E-02    0.00       1.0  T
  15   -148.6007094  0.585426E-04  0.242E-02    0.01       1.0  T
  16   -148.6007834 -0.740540E-04  0.609E-03    0.00       1.7  T
  17   -148.6007879 -0.450546E-05  0.112E-03    0.00       9.1  T
  18   -148.6007877  0.204824E-06  0.154E-03    0.00       6.6  T
  19   -148.6007879 -0.181283E-06  0.118E-03    0.00       8.6  T
  20   -148.6007881 -0.168000E-06  0.214E-04    0.00      47.3  T
  21   -148.6007881  0.754028E-10  0.201E-04    0.00      50.5  T
     SCC iter.                  ...        0 min,  0.154 sec
     gradient                   ...        0 min,  0.020 sec
 * total energy  :  -146.0543157 Eh     change       -0.1540796E-01 Eh
   gradient norm :     0.0414197 Eh/α   predicted    -0.1460228E-01 (  -5.23%)
   displ. norm   :     0.7772710 α      lambda       -0.1568157E-01
   maximum displ.:     0.3068959 α      in ANC's #61, #29, #45, ...

........................................................................
.............................. CYCLE   10 ..............................
........................................................................

 iter      E             dE          RMSdq      gap      omega  full diag
   1   -148.5832973 -0.148583E+03  0.388E-01    0.01       0.0  T
   2   -148.3428072  0.240490E+00  0.153E+00    0.09       1.0  T
   3   -148.1819954  0.160812E+00  0.175E+00    0.20       1.0  T
   4   -147.8059046  0.376091E+00  0.230E+00    0.28       1.0  T
   5   -148.2853541 -0.479449E+00  0.156E+00    0.01       1.0  T
   6   -148.3707358 -0.853818E-01  0.130E+00    0.09       1.0  T
   7   -148.4109357 -0.401999E-01  0.117E+00    0.12       1.0  T
   8   -148.5792231 -0.168287E+00  0.331E-01    0.01       1.0  T
   9   -148.5810706 -0.184741E-02  0.291E-01    0.02       1.0  T
  10   -148.5842106 -0.313999E-02  0.263E-01    0.01       1.0  T
  11   -148.5887638 -0.455320E-02  0.195E-01    0.01       1.0  T
  12   -148.5888534 -0.896777E-04  0.212E-01    0.01       1.0  T
  13   -148.5934218 -0.456833E-02  0.110E-01    0.01       1.0  T
  14   -148.5934146  0.712914E-05  0.111E-01    0.01       1.0  T
  15   -148.5946612 -0.124652E-02  0.419E-02    0.01       1.0  T
  16   -148.5949412 -0.280089E-03  0.975E-03    0.01       1.0  T
  17   -148.5949550 -0.137993E-04  0.470E-03    0.01       2.2  T
  18   -148.5949575 -0.246965E-05  0.134E-03    0.01       7.6  T
  19   -148.5949565  0.104066E-05  0.320E-03    0.01       3.2  T
  20   -148.5949572 -0.743084E-06  0.182E-03    0.01       5.6  T
  21   -148.5949577 -0.482661E-06  0.621E-04    0.01      16.3  T
  22   -148.5949577  0.632042E-08  0.653E-04    0.01      15.5  T
     SCC iter.                  ...        0 min,  0.159 sec
     gradient                   ...        0 min,  0.020 sec
 * total energy  :  -146.0646936 Eh     change       -0.1037789E-01 Eh
   gradient norm :     0.0581881 Eh/α   predicted    -0.1257781E-01 (  21.20%)
   displ. norm   :     0.7205328 α      lambda       -0.1506962E-01
   maximum displ.:     0.3103755 α      in ANC's #61, #29, #46, ...

........................................................................
.............................. CYCLE   11 ..............................
........................................................................

 iter      E             dE          RMSdq      gap      omega  full diag
   1   -148.5906003 -0.148591E+03  0.377E-01    0.01       0.0  T
   2   -148.2771966  0.313404E+00  0.167E+00    0.31       1.0  T
   3   -148.1630994  0.114097E+00  0.180E+00    0.27       1.0  T
   4   -147.8185213  0.344578E+00  0.227E+00    0.33       1.0  T
   5   -148.1968952 -0.378374E+00  0.161E+00    0.08       1.0  T
   6   -148.4770671 -0.280172E+00  0.972E-01    0.08       1.0  T
   7   -148.2916524  0.185415E+00  0.153E+00    0.11       1.0  T
   8   -148.5771332 -0.285481E+00  0.393E-01    0.03       1.0  T
   9   -148.5849722 -0.783895E-02  0.365E-01    0.01       1.0  T
  10   -148.5849269  0.452489E-04  0.335E-01    0.02       1.0  T
  11   -148.5916389 -0.671200E-02  0.270E-01    0.01       1.0  T
  12   -148.5885243  0.311462E-02  0.288E-01    0.02       1.0  T
  13   -148.5977761 -0.925179E-02  0.162E-01    0.01       1.0  T
  14   -148.6007923 -0.301624E-02  0.997E-02    0.01       1.0  T
  15   -148.6011827 -0.390349E-03  0.717E-02    0.01       1.0  T
  16   -148.6015392 -0.356542E-03  0.600E-02    0.01       1.0  T
  17   -148.6020115 -0.472292E-03  0.626E-03    0.01       1.6  T
  18   -148.6019219  0.896804E-04  0.267E-02    0.01       1.0  T
  19   -148.6020162 -0.943846E-04  0.190E-03    0.01       5.4  T
  20   -148.6020166 -0.413131E-06  0.496E-04    0.01      20.5  T
  21   -148.6020155  0.116105E-05  0.259E-03    0.01       3.9  T
  22   -148.6020164 -0.913302E-06  0.140E-03    0.01       7.3  T
  23   -148.6020166 -0.235962E-06  0.537E-04    0.01      18.9  T
     SCC iter.                  ...        0 min,  0.169 sec
     gradient                   ...        0 min,  0.019 sec
 * total energy  :  -146.0740234 Eh     change       -0.9329787E-02 Eh
   gradient norm :     0.0699809 Eh/α   predicted    -0.1144665E-01 (  22.69%)
   displ. norm   :     0.6148445 α      lambda       -0.9986876E-02
   maximum displ.:     0.2576675 α      in ANC's #61, #29, #13, ...

........................................................................
.............................. CYCLE   12 ..............................
........................................................................

 iter      E             dE          RMSdq      gap      omega  full diag
   1   -148.6020980 -0.148602E+03  0.297E-01    0.01       0.0  T
   2   -148.4180166  0.184081E+00  0.126E+00    0.10       1.0  T
   3   -148.1636044  0.254412E+00  0.181E+00    0.46       1.0  T
   4   -147.9496377  0.213967E+00  0.204E+00    0.15       1.0  T
   5   -148.5778085 -0.628171E+00  0.503E-01    0.03       1.0  T
   6   -148.5493355  0.284730E-01  0.671E-01    0.05       1.0  T
   7   -148.5069293  0.424063E-01  0.888E-01    0.06       1.0  T
   8   -148.5983654 -0.914361E-01  0.258E-01    0.02       1.0  T
   9   -148.5904597  0.790569E-02  0.381E-01    0.02       1.0  T
  10   -148.6063907 -0.159310E-01  0.120E-01    0.01       1.0  T
  11   -148.6071438 -0.753127E-03  0.118E-01    0.01       1.0  T
  12   -148.6077827 -0.638868E-03  0.947E-02    0.01       1.0  T
  13   -148.6087482 -0.965481E-03  0.305E-02    0.01       1.0  T
  14   -148.6087871 -0.388732E-04  0.318E-02    0.01       1.0  T
  15   -148.6088986 -0.111504E-03  0.104E-02    0.01       1.0  T
  16   -148.6089108 -0.122552E-04  0.402E-03    0.01       2.5  T
  17   -148.6089128 -0.199105E-05  0.739E-04    0.01      13.7  T
  18   -148.6089124  0.366118E-06  0.189E-03    0.01       5.4  T
  19   -148.6089128 -0.398918E-06  0.498E-04    0.01      20.4  T
  20   -148.6089129 -0.398903E-07  0.671E-05    0.01     151.4  T
     SCC iter.                  ...        0 min,  0.145 sec
     gradient                   ...        0 min,  0.020 sec
 * total energy  :  -146.0815477 Eh     change       -0.7524269E-02 Eh
   gradient norm :     0.0465598 Eh/α   predicted    -0.6881132E-02 (  -8.55%)
   displ. norm   :     0.7380347 α      lambda       -0.9660135E-02
   maximum displ.:     0.3165983 α      in ANC's #61, #29, #13, ...

........................................................................
.............................. CYCLE   13 ..............................
........................................................................

 iter      E             dE          RMSdq      gap      omega  full diag
   1   -148.6025606 -0.148603E+03  0.258E-01    0.01       0.0  T
   2   -147.8933880  0.709173E+00  0.214E+00    0.19       1.0  T
   3   -148.5330162 -0.639628E+00  0.799E-01    0.05       1.0  T
   4   -148.2920965  0.240920E+00  0.152E+00    0.13       1.0  T
   5   -148.5850770 -0.292980E+00  0.404E-01    0.01       1.0  T
   6   -148.5211902  0.638867E-01  0.808E-01    0.05       1.0  T
   7   -148.5268078 -0.561753E-02  0.786E-01    0.06       1.0  T
   8   -148.6052602 -0.784525E-01  0.114E-01    0.01       1.0  T
   9   -148.6035154  0.174483E-02  0.156E-01    0.01       1.0  T
  10   -148.6052984 -0.178306E-02  0.116E-01    0.01       1.0  T
  11   -148.6062069 -0.908508E-03  0.726E-02    0.01       1.0  T
  12   -148.6070025 -0.795559E-03  0.254E-02    0.01       1.0  T
  13   -148.6070805 -0.779730E-04  0.619E-03    0.01       1.6  T
  14   -148.6070838 -0.337067E-05  0.312E-03    0.01       3.3  T
  15   -148.6070844 -0.593622E-06  0.217E-03    0.01       4.7  T
  16   -148.6070845 -0.734820E-07  0.200E-03    0.01       5.1  T
  17   -148.6070848 -0.273115E-06  0.152E-03    0.01       6.7  T
  18   -148.6070850 -0.228029E-06  0.884E-04    0.01      11.5  T
  19   -148.6070851 -0.693936E-07  0.466E-04    0.01      21.8  T
     SCC iter.                  ...        0 min,  0.144 sec
     gradient                   ...        0 min,  0.019 sec
 * total energy  :  -146.0891030 Eh     change       -0.7555291E-02 Eh
   gradient norm :     0.0389645 Eh/α   predicted    -0.7460986E-02 (  -1.25%)
   displ. norm   :     0.7364865 α      lambda       -0.8824123E-02
   maximum displ.:     0.3245554 α      in ANC's #61, #13, #5, ...

........................................................................
.............................. CYCLE   14 ..............................
........................................................................

 iter      E             dE          RMSdq      gap      omega  full diag
   1   -148.6051287 -0.148605E+03  0.370E-01    0.01       0.0  T
   2   -148.1532509  0.451878E+00  0.183E+00    0.22       1.0  T
   3   -148.3083897 -0.155139E+00  0.164E+00    0.23       1.0  T
   4   -147.9923676  0.316022E+00  0.194E+00    0.15       1.0  T
   5   -148.6074543 -0.615087E+00  0.307E-01    0.02       1.0  T
   6   -148.5965697  0.108846E-01  0.410E-01    0.02       1.0  T
   7   -148.5815366  0.150331E-01  0.512E-01    0.04       1.0  T
   8   -148.5573080  0.242285E-01  0.685E-01    0.04       1.0  T
   9   -148.5907186 -0.334106E-01  0.441E-01    0.04       1.0  T
  10   -148.6074445 -0.167259E-01  0.284E-01    0.01       1.0  T
  11   -148.6146778 -0.723327E-02  0.145E-01    0.01       1.0  T
  12   -148.6163812 -0.170340E-02  0.931E-02    0.01       1.0  T
  13   -148.6166730 -0.291788E-03  0.890E-02    0.01       1.0  T
  14   -148.6170050 -0.332008E-03  0.747E-02    0.01       1.0  T
  15   -148.6177219 -0.716921E-03  0.681E-03    0.01       1.5  T
  16   -148.6177110  0.109056E-04  0.125E-02    0.01       1.0  T
  17   -148.6177295 -0.184708E-04  0.260E-03    0.01       3.9  T
  18   -148.6177304 -0.907244E-06  0.129E-03    0.01       7.9  T
  19   -148.6177304 -0.355956E-07  0.108E-03    0.01       9.4  T
  20   -148.6177306 -0.154793E-06  0.384E-04    0.01      26.4  T
  21   -148.6177306 -0.134352E-07  0.306E-04    0.01      33.2  T
     SCC iter.                  ...        0 min,  0.156 sec
     gradient                   ...        0 min,  0.020 sec
 * total energy  :  -146.0956882 Eh     change       -0.6585196E-02 Eh
   gradient norm :     0.0368442 Eh/α   predicted    -0.6805228E-02 (   3.34%)
   displ. norm   :     0.7646121 α      lambda       -0.7934562E-02
   maximum displ.:     0.3560464 α      in ANC's #61, #13, #5, ...

........................................................................
.............................. CYCLE   15 ..............................
........................................................................

 iter      E             dE          RMSdq      gap      omega  full diag
   1   -148.6094472 -0.148609E+03  0.271E-01    0.01       0.0  T
   2   -148.2369646  0.372483E+00  0.163E+00    0.04       1.0  T
   3   -148.3626458 -0.125681E+00  0.135E+00    0.10       1.0  T
   4   -148.3433994  0.192464E-01  0.149E+00    0.23       1.0  T
   5   -148.5929711 -0.249572E+00  0.386E-01    0.03       1.0  T
   6   -148.6100033 -0.170322E-01  0.135E-01    0.01       1.0  T
   7   -148.6102625 -0.259219E-03  0.127E-01    0.01       1.0  T
   8   -148.6114044 -0.114188E-02  0.704E-02    0.01       1.0  T
   9   -148.6120101 -0.605759E-03  0.379E-02    0.01       1.0  T
  10   -148.6119316  0.785760E-04  0.443E-02    0.01       1.0  T
  11   -148.6120545 -0.122970E-03  0.370E-02    0.01       1.0  T
  12   -148.6120479  0.665672E-05  0.345E-02    0.01       1.0  T
  13   -148.6121988 -0.150921E-03  0.148E-02    0.01       1.0  T
  14   -148.6122297 -0.309241E-04  0.855E-04    0.01      11.9  T
  15   -148.6122297  0.441389E-08  0.789E-04    0.01      12.9  T
  16   -148.6122296  0.764559E-07  0.965E-04    0.01      10.5  T
     SCC iter.                  ...        0 min,  0.123 sec
     gradient                   ...        0 min,  0.019 sec
 * total energy  :  -146.1010452 Eh     change       -0.5357071E-02 Eh
   gradient norm :     0.0571630 Eh/α   predicted    -0.6286689E-02 (  17.35%)
   displ. norm   :     0.6324637 α      lambda       -0.7278473E-02
   maximum displ.:     0.2824756 α      in ANC's #61, #13, #5, ...

........................................................................
.............................. CYCLE   16 ..............................
........................................................................

 iter      E             dE          RMSdq      gap      omega  full diag
   1   -148.6170180 -0.148617E+03  0.232E-01    0.00       0.0  T
   2   -148.3800296  0.236988E+00  0.146E+00    0.09       1.0  T
   3   -148.2813294  0.987002E-01  0.156E+00    0.16       1.0  T
   4   -148.5585718 -0.277242E+00  0.686E-01    0.05       1.0  T
   5   -148.3661296  0.192442E+00  0.116E+00    0.04       1.0  T
   6   -148.6133922 -0.247263E+00  0.217E-01    0.01       1.0  T
   7   -148.6181567 -0.476448E-02  0.856E-02    0.01       1.0  T
   8   -148.6179699  0.186794E-03  0.845E-02    0.01       1.0  T
   9   -148.6164070  0.156290E-02  0.150E-01    0.01       1.0  T
  10   -148.6185105 -0.210349E-02  0.619E-02    0.01       1.0  T
  11   -148.6184411  0.693508E-04  0.769E-02    0.01       1.0  T
  12   -148.6191450 -0.703828E-03  0.269E-02    0.01       1.0  T
  13   -148.6192127 -0.677747E-04  0.169E-02    0.01       1.0  T
  14   -148.6192272 -0.145233E-04  0.108E-02    0.01       1.0  T
  15   -148.6192439 -0.166446E-04  0.510E-03    0.01       2.0  T
  16   -148.6192454 -0.152177E-05  0.384E-03    0.01       2.6  T
  17   -148.6192476 -0.214426E-05  0.211E-03    0.01       4.8  T
  18   -148.6192484 -0.876835E-06  0.347E-04    0.01      29.2  T
  19   -148.6192484  0.108552E-07  0.456E-04    0.01      22.3  T
     SCC iter.                  ...        0 min,  0.139 sec
     gradient                   ...        0 min,  0.020 sec
 * total energy  :  -146.1069755 Eh     change       -0.5930276E-02 Eh
   gradient norm :     0.0410601 Eh/α   predicted    -0.5094974E-02 ( -14.09%)
   displ. norm   :     0.6502542 α      lambda       -0.9213028E-02
   maximum displ.:     0.2460225 α      in ANC's #61, #13, #5, ...

........................................................................
.............................. CYCLE   17 ..............................
........................................................................

 iter      E             dE          RMSdq      gap      omega  full diag
   1   -148.6516741 -0.148652E+03  0.272E-01    0.01       0.0  T
   2   -148.3452314  0.306443E+00  0.150E+00    0.13       1.0  T
   3   -148.3871410 -0.419096E-01  0.153E+00    0.16       1.0  T
   4   -148.6442050 -0.257064E+00  0.304E-01    0.01       1.0  T
   5   -148.5758861  0.683189E-01  0.790E-01    0.06       1.0  T
   6   -148.6492653 -0.733791E-01  0.229E-01    0.01       1.0  T
   7   -148.6547529 -0.548765E-02  0.771E-02    0.01       1.0  T
   8   -148.6550010 -0.248087E-03  0.639E-02    0.01       1.0  T
   9   -148.6548419  0.159138E-03  0.810E-02    0.00       1.0  T
  10   -148.6512797  0.356214E-02  0.173E-01    0.01       1.0  T
  11   -148.6555833 -0.430361E-02  0.205E-02    0.01       1.0  T
  12   -148.6551921  0.391268E-03  0.513E-02    0.01       1.0  T
  13   -148.6554726 -0.280537E-03  0.328E-02    0.01       1.0  T
  14   -148.6556277 -0.155137E-03  0.936E-03    0.01       1.1  T
  15   -148.6556324 -0.466986E-05  0.746E-03    0.01       1.4  T
  16   -148.6556368 -0.444355E-05  0.345E-03    0.01       2.9  T
  17   -148.6556380 -0.111024E-05  0.325E-03    0.01       3.1  T
  18   -148.6556393 -0.130535E-05  0.501E-04    0.01      20.3  T
  19   -148.6556393 -0.238228E-07  0.325E-04    0.01      31.3  T
  20   -148.6556393 -0.118085E-07  0.112E-04    0.01      90.7  T
     SCC iter.                  ...        0 min,  0.147 sec
     gradient                   ...        0 min,  0.019 sec
 * total energy  :  -146.1125036 Eh     change       -0.5528117E-02 Eh
   gradient norm :     0.0716913 Eh/α   predicted    -0.6554295E-02 (  18.56%)
   displ. norm   :     0.7246041 α      lambda       -0.9721255E-02
   maximum displ.:     0.3328588 α      in ANC's #61, #5, #63, ...

........................................................................
.............................. CYCLE   18 ..............................
........................................................................

 iter      E             dE          RMSdq      gap      omega  full diag
   1   -148.6358333 -0.148636E+03  0.284E-01    0.01       0.0  T
   2   -148.4809676  0.154866E+00  0.107E+00    0.08       1.0  T
   3   -148.3803830  0.100585E+00  0.150E+00    0.14       1.0  T
   4   -148.5873117 -0.206929E+00  0.634E-01    0.05       1.0  T
   5   -148.6216258 -0.343141E-01  0.354E-01    0.02       1.0  T
   6   -148.6376198 -0.159940E-01  0.633E-02    0.01       1.0  T
   7   -148.6375336  0.861957E-04  0.640E-02    0.01       1.0  T
   8   -148.6377080 -0.174464E-03  0.515E-02    0.00       1.0  T
   9   -148.6380323 -0.324236E-03  0.224E-02    0.01       1.0  T
  10   -148.6380370 -0.477313E-05  0.210E-02    0.01       1.0  T
  11   -148.6380493 -0.123052E-04  0.180E-02    0.01       1.0  T
  12   -148.6380920 -0.426911E-04  0.167E-03    0.01       6.1  T
  13   -148.6380859  0.610161E-05  0.700E-03    0.01       1.5  T
  14   -148.6380897 -0.373079E-05  0.452E-03    0.01       2.2  T
  15   -148.6380893  0.330346E-06  0.479E-03    0.01       2.1  T
  16   -148.6380912 -0.188672E-05  0.291E-03    0.01       3.5  T
  17   -148.6380922 -0.102702E-05  0.645E-04    0.01      15.8  T
  18   -148.6380923 -0.247722E-07  0.473E-04    0.01      21.5  T
  19   -148.6380923 -0.259616E-07  0.155E-04    0.01      65.5  T
     SCC iter.                  ...        0 min,  0.140 sec
     gradient                   ...        0 min,  0.020 sec
 * total energy  :  -146.1200112 Eh     change       -0.7507589E-02 Eh
   gradient norm :     0.0414795 Eh/α   predicted    -0.7412698E-02 (  -1.26%)
   displ. norm   :     0.7514577 α      lambda       -0.7760847E-02
   maximum displ.:     0.3154674 α      in ANC's #61, #63, #5, ...

........................................................................
.............................. CYCLE   19 ..............................
........................................................................

 iter      E             dE          RMSdq      gap      omega  full diag
   1   -148.6315148 -0.148632E+03  0.282E-01    0.01       0.0  T
   2   -148.6248018  0.671301E-02  0.291E-01    0.02       1.0  T
   3   -148.2377692  0.387033E+00  0.170E+00    0.37       1.0  T
   4   -148.4888407 -0.251072E+00  0.107E+00    0.09       1.0  T
   5   -148.4753478  0.134930E-01  0.108E+00    0.08       1.0  T
   6   -148.6296807 -0.154333E+00  0.131E-01    0.01       1.0  T
   7   -148.6291351  0.545561E-03  0.158E-01    0.01       1.0  T
   8   -148.6319104 -0.277531E-02  0.453E-02    0.00       1.0  T
   9   -148.6306135  0.129696E-02  0.107E-01    0.01       1.0  T
  10   -148.6306843 -0.708550E-04  0.103E-01    0.01       1.0  T
  11   -148.6318064 -0.112203E-02  0.506E-02    0.00       1.0  T
  12   -148.6319793 -0.172915E-03  0.363E-02    0.01       1.0  T
  13   -148.6320028 -0.235698E-04  0.325E-02    0.01       1.0  T
  14   -148.6321090 -0.106207E-03  0.162E-02    0.01       1.0  T
  15   -148.6321416 -0.325191E-04  0.205E-03    0.01       4.9  T
  16   -148.6321406  0.957274E-06  0.339E-03    0.01       3.0  T
  17   -148.6321416 -0.950342E-06  0.197E-03    0.01       5.2  T
  18   -148.6321420 -0.483219E-06  0.541E-04    0.01      18.8  T
  19   -148.6321421 -0.280866E-07  0.249E-04    0.01      40.8  T
     SCC iter.                  ...        0 min,  0.140 sec
     gradient                   ...        0 min,  0.019 sec
 * total energy  :  -146.1254393 Eh     change       -0.5428114E-02 Eh
   gradient norm :     0.0401106 Eh/α   predicted    -0.6071660E-02 (  11.86%)
   displ. norm   :     0.5694697 α      lambda       -0.8056907E-02
   maximum displ.:     0.1792238 α      in ANC's #61, #20, #5, ...

........................................................................
.............................. CYCLE   20 ..............................
........................................................................

 iter      E             dE          RMSdq      gap      omega  full diag
   1   -148.6369428 -0.148637E+03  0.202E-01    0.00       0.0  T
   2   -148.3778082  0.259135E+00  0.149E+00    0.16       1.0  T
   3   -148.5667414 -0.188933E+00  0.733E-01    0.05       1.0  T
   4   -148.5353856  0.313558E-01  0.902E-01    0.08       1.0  T
   5   -148.6301672 -0.947816E-01  0.197E-01    0.01       1.0  T
   6   -148.6375059 -0.733867E-02  0.358E-02    0.01       1.0  T
   7   -148.6371771  0.328734E-03  0.653E-02    0.00       1.0  T
   8   -148.6375933 -0.416207E-03  0.226E-02    0.01       1.0  T
   9   -148.6374804  0.112927E-03  0.372E-02    0.01       1.0  T
  10   -148.6370529  0.427494E-03  0.687E-02    0.00       1.0  T
  11   -148.6376128 -0.559899E-03  0.221E-02    0.01       1.0  T
  12   -148.6376721 -0.593145E-04  0.407E-03    0.01       2.5  T
  13   -148.6376733 -0.117296E-05  0.333E-03    0.01       3.0  T
  14   -148.6376687  0.463248E-05  0.666E-03    0.01       1.5  T
  15   -148.6376746 -0.595323E-05  0.881E-04    0.01      11.5  T
  16   -148.6376740  0.641693E-06  0.235E-03    0.01       4.3  T
  17   -148.6376747 -0.723124E-06  0.335E-04    0.01      30.3  T
  18   -148.6376747  0.106945E-07  0.438E-04    0.01      23.2  T
     SCC iter.                  ...        0 min,  0.131 sec
     gradient                   ...        0 min,  0.020 sec
 * total energy  :  -146.1299681 Eh     change       -0.4528783E-02 Eh
   gradient norm :     0.0500993 Eh/α   predicted    -0.5334869E-02 (  17.80%)
   displ. norm   :     0.6355118 α      lambda       -0.7674217E-02
   maximum displ.:     0.2132124 α      in ANC's #61, #20, #63, ...
 * RMSD in coord.:     1.0522892 α      energy gain  -0.4070102E+00 Eh

generating ANC from exact Hessian ...
Using Lindh-Hessian (1995)
 Shifting diagonal of input Hessian by   1.014195008418661E-002
 Lowest  eigenvalues of input Hessian
    0.010000    0.010072    0.010106    0.000000    0.000000    0.000000
    0.000000    0.000000    0.010179    0.000000    0.010203    0.010220
    0.010285    0.010288    0.010309    0.010401    0.010483    0.010633
 Highest eigenvalues
    2.100753    2.121503    2.139020    2.539400    2.618651    3.154477
 

........................................................................
.............................. CYCLE   21 ..............................
........................................................................

 iter      E             dE          RMSdq      gap      omega  full diag
   1   -148.6506576 -0.148651E+03  0.234E-01    0.01       0.0  T
   2   -148.3044717  0.346186E+00  0.158E+00    0.18       1.0  T
   3   -148.5575603 -0.253089E+00  0.891E-01    0.07       1.0  T
   4   -148.6346548 -0.770945E-01  0.359E-01    0.03       1.0  T
   5   -148.6249597  0.969509E-02  0.448E-01    0.02       1.0  T
   6   -148.6502291 -0.252694E-01  0.942E-02    0.00       1.0  T
   7   -148.6513083 -0.107917E-02  0.156E-02    0.01       1.0  T
   8   -148.6512359  0.724332E-04  0.224E-02    0.01       1.0  T
   9   -148.6512960 -0.601270E-04  0.165E-02    0.01       1.0  T
  10   -148.6513191 -0.230651E-04  0.663E-03    0.01       1.5  T
  11   -148.6513176  0.148779E-05  0.773E-03    0.01       1.3  T
  12   -148.6513214 -0.380600E-05  0.468E-03    0.01       2.2  T
  13   -148.6513224 -0.103766E-05  0.401E-03    0.01       2.5  T
  14   -148.6513236 -0.116984E-05  0.279E-03    0.01       3.6  T
  15   -148.6513245 -0.937372E-06  0.359E-04    0.01      28.3  T
  16   -148.6513245  0.280313E-07  0.588E-04    0.01      17.3  T
     SCC iter.                  ...        0 min,  0.120 sec
     gradient                   ...        0 min,  0.020 sec
 * total energy  :  -146.1350610 Eh     change       -0.5092922E-02 Eh
   gradient norm :     0.0337802 Eh/α   predicted     0.0000000E+00 (-100.00%)
   displ. norm   :     0.4434751 α      lambda       -0.5194808E-02
   maximum displ.:     0.2539218 α      in ANC's #27, #30, #32, ...

........................................................................
.............................. CYCLE   22 ..............................
........................................................................

 iter      E             dE          RMSdq      gap      omega  full diag
   1   -148.6548751 -0.148655E+03  0.270E-01    0.01       0.0  T
   2   -148.3684775  0.286398E+00  0.158E+00    0.31       1.0  T
   3   -148.6580907 -0.289613E+00  0.133E-01    0.01       1.0  T
   4   -148.5392067  0.118884E+00  0.933E-01    0.07       1.0  T
   5   -148.5098211  0.293855E-01  0.110E+00    0.10       1.0  T
   6   -148.6537962 -0.143975E+00  0.190E-01    0.01       1.0  T
   7   -148.6583636 -0.456747E-02  0.197E-02    0.01       1.0  T
   8   -148.6576096  0.754072E-03  0.781E-02    0.01       1.0  T
   9   -148.6562023  0.140729E-02  0.129E-01    0.01       1.0  T
  10   -148.6577046 -0.150230E-02  0.739E-02    0.01       1.0  T
  11   -148.6581712 -0.466678E-03  0.429E-02    0.01       1.0  T
  12   -148.6583883 -0.217105E-03  0.122E-02    0.01       1.0  T
  13   -148.6583957 -0.730658E-05  0.969E-03    0.01       1.0  T
  14   -148.6584072 -0.115715E-04  0.193E-03    0.01       5.3  T
  15   -148.6584077 -0.461799E-06  0.542E-04    0.01      18.7  T
  16   -148.6584075  0.215399E-06  0.140E-03    0.01       7.2  T
  17   -148.6584077 -0.251974E-06  0.650E-05    0.01     156.2  T
     SCC iter.                  ...        0 min,  0.129 sec
     gradient                   ...        0 min,  0.020 sec
 * total energy  :  -146.1381758 Eh     change       -0.3114791E-02 Eh
   gradient norm :     0.0242855 Eh/α   predicted    -0.3109545E-02 (  -0.17%)
   displ. norm   :     0.5793654 α      lambda       -0.6179207E-02
   maximum displ.:     0.3028668 α      in ANC's #27, #30, #15, ...

........................................................................
.............................. CYCLE   23 ..............................
........................................................................

 iter      E             dE          RMSdq      gap      omega  full diag
   1   -148.6653480 -0.148665E+03  0.253E-01    0.01       0.0  T
   2   -148.5781804  0.871675E-01  0.818E-01    0.05       1.0  T
   3   -148.4355790  0.142601E+00  0.138E+00    0.16       1.0  T
   4   -148.4289881  0.659090E-02  0.120E+00    0.04       1.0  T
   5   -148.5736420 -0.144654E+00  0.840E-01    0.07       1.0  T
   6   -148.6551185 -0.814765E-01  0.278E-01    0.02       1.0  T
   7   -148.6652321 -0.101136E-01  0.552E-02    0.01       1.0  T
   8   -148.6648825  0.349586E-03  0.815E-02    0.01       1.0  T
   9   -148.6653227 -0.440134E-03  0.493E-02    0.01       1.0  T
  10   -148.6653457 -0.230279E-04  0.470E-02    0.01       1.0  T
  11   -148.6651856  0.160041E-03  0.616E-02    0.01       1.0  T
  12   -148.6654370 -0.251408E-03  0.386E-02    0.01       1.0  T
  13   -148.6654962 -0.591712E-04  0.322E-02    0.01       1.0  T
  14   -148.6655867 -0.904708E-04  0.208E-02    0.01       1.0  T
  15   -148.6656527 -0.660087E-04  0.464E-03    0.01       2.2  T
  16   -148.6656532 -0.503867E-06  0.379E-03    0.01       2.7  T
  17   -148.6656553 -0.208110E-05  0.526E-04    0.01      19.3  T
  18   -148.6656552  0.337540E-07  0.542E-04    0.01      18.7  T
  19   -148.6656552  0.159210E-07  0.618E-04    0.01      16.4  T
     SCC iter.                  ...        0 min,  0.139 sec
     gradient                   ...        0 min,  0.020 sec
 * total energy  :  -146.1410382 Eh     change       -0.2862326E-02 Eh
   gradient norm :     0.0331611 Eh/α   predicted    -0.4126674E-02 (  44.17%)
   displ. norm   :     0.3845086 α      lambda       -0.2820300E-02
   maximum displ.:     0.1520360 α      in ANC's #15, #27, #20, ...

........................................................................
.............................. CYCLE   24 ..............................
........................................................................

 iter      E             dE          RMSdq      gap      omega  full diag
   1   -148.6650420 -0.148665E+03  0.120E-01    0.01       0.0  T
   2   -148.2749986  0.390043E+00  0.167E+00    0.34       1.0  T
   3   -148.6641597 -0.389161E+00  0.128E-01    0.01       1.0  T
   4   -148.6561729  0.798687E-02  0.269E-01    0.02       1.0  T
   5   -148.6485699  0.760300E-02  0.365E-01    0.02       1.0  T
   6   -148.6521954 -0.362548E-02  0.321E-01    0.03       1.0  T
   7   -148.6639274 -0.117321E-01  0.123E-01    0.01       1.0  T
   8   -148.6657866 -0.185915E-02  0.307E-02    0.01       1.0  T
   9   -148.6657257  0.608646E-04  0.373E-02    0.01       1.0  T
  10   -148.6657815 -0.557601E-04  0.312E-02    0.01       1.0  T
  11   -148.6658545 -0.730462E-04  0.203E-02    0.01       1.0  T
  12   -148.6659060 -0.514744E-04  0.188E-03    0.01       5.4  T
  13   -148.6659063 -0.322858E-06  0.106E-03    0.01       9.6  T
  14   -148.6659047  0.157492E-05  0.363E-03    0.01       2.8  T
  15   -148.6659058 -0.112408E-05  0.212E-03    0.01       4.8  T
  16   -148.6659064 -0.510718E-06  0.786E-04    0.01      12.9  T
  17   -148.6659063  0.958627E-08  0.847E-04    0.01      12.0  T
     SCC iter.                  ...        0 min,  0.127 sec
     gradient                   ...        0 min,  0.020 sec
 * total energy  :  -146.1432870 Eh     change       -0.2248873E-02 Eh
   gradient norm :     0.0197973 Eh/α   predicted    -0.1618642E-02 ( -28.02%)
   displ. norm   :     0.7017405 α      lambda       -0.3945105E-02
   maximum displ.:     0.2940748 α      in ANC's #27, #15, #20, ...

........................................................................
.............................. CYCLE   25 ..............................
........................................................................

 iter      E             dE          RMSdq      gap      omega  full diag
   1   -148.6571046 -0.148657E+03  0.222E-01    0.02       0.0  T
   2   -148.2525934  0.404511E+00  0.172E+00    0.54       1.0  T
   3   -148.6530641 -0.400471E+00  0.222E-01    0.01       1.0  T
   4   -148.5768780  0.761861E-01  0.805E-01    0.07       1.0  T
   5   -148.3949346  0.181943E+00  0.138E+00    0.12       1.0  T
   6   -148.5844496 -0.189515E+00  0.765E-01    0.06       1.0  T
   7   -148.6459008 -0.614512E-01  0.323E-01    0.03       1.0  T
   8   -148.6542723 -0.837149E-02  0.215E-01    0.01       1.0  T
   9   -148.6540617  0.210585E-03  0.210E-01    0.02       1.0  T
  10   -148.6589941 -0.493238E-02  0.904E-02    0.01       1.0  T
  11   -148.6601190 -0.112490E-02  0.646E-03    0.01       1.6  T
  12   -148.6601100  0.905047E-05  0.117E-02    0.01       1.0  T
  13   -148.6601251 -0.151001E-04  0.438E-03    0.01       2.3  T
  14   -148.6601007  0.243871E-04  0.145E-02    0.01       1.0  T
  15   -148.6601234 -0.227081E-04  0.573E-03    0.01       1.8  T
  16   -148.6601276 -0.421910E-05  0.124E-03    0.01       8.2  T
  17   -148.6601274  0.183115E-06  0.167E-03    0.01       6.1  T
  18   -148.6601274  0.253132E-08  0.170E-03    0.01       6.0  T
  19   -148.6601278 -0.379995E-06  0.436E-05    0.01     233.1  T
  20   -148.6601278  0.131521E-07  0.316E-04    0.01      32.1  T
     SCC iter.                  ...        0 min,  0.164 sec
     gradient                   ...        0 min,  0.020 sec
 * total energy  :  -146.1445535 Eh     change       -0.1266496E-02 Eh
   gradient norm :     0.0364126 Eh/α   predicted    -0.2943922E-02 ( 132.45%)
   displ. norm   :     0.4625840 α      lambda       -0.4141148E-02
   maximum displ.:     0.1767839 α      in ANC's #15, #5, #20, ...

........................................................................
.............................. CYCLE   26 ..............................
........................................................................

 iter      E             dE          RMSdq      gap      omega  full diag
   1   -148.6601922 -0.148660E+03  0.188E-01    0.01       0.0  T
   2   -148.3770174  0.283175E+00  0.155E+00    0.25       1.0  T
   3   -148.6477163 -0.270699E+00  0.359E-01    0.03       1.0  T
   4   -148.6423357  0.538056E-02  0.403E-01    0.02       1.0  T
   5   -148.6583660 -0.160303E-01  0.188E-01    0.02       1.0  T
   6   -148.5869506  0.714154E-01  0.753E-01    0.05       1.0  T
   7   -148.6587438 -0.717932E-01  0.180E-01    0.02       1.0  T
   8   -148.6401142  0.186296E-01  0.416E-01    0.02       1.0  T
   9   -148.6621263 -0.220120E-01  0.907E-02    0.01       1.0  T
  10   -148.6628905 -0.764251E-03  0.483E-02    0.00       1.0  T
  11   -148.6631878 -0.297300E-03  0.505E-03    0.01       2.0  T
  12   -148.6631623  0.255518E-04  0.150E-02    0.01       1.0  T
  13   -148.6631686 -0.631281E-05  0.130E-02    0.01       1.0  T
  14   -148.6631890 -0.204200E-04  0.315E-03    0.01       3.2  T
  15   -148.6631850  0.396704E-05  0.628E-03    0.01       1.6  T
  16   -148.6631898 -0.473010E-05  0.198E-03    0.01       5.1  T
  17   -148.6631902 -0.401961E-06  0.101E-03    0.01      10.1  T
  18   -148.6631903 -0.127649E-06  0.115E-04    0.01      88.4  T
  19   -148.6631902  0.386971E-07  0.559E-04    0.01      18.2  T
     SCC iter.                  ...        0 min,  0.153 sec
     gradient                   ...        0 min,  0.020 sec
 * total energy  :  -146.1470993 Eh     change       -0.2545817E-02 Eh
   gradient norm :     0.0161439 Eh/α   predicted    -0.2513644E-02 (  -1.26%)
   displ. norm   :     0.6409979 α      lambda       -0.2134321E-02
   maximum displ.:     0.2614987 α      in ANC's #27, #15, #5, ...

........................................................................
.............................. CYCLE   27 ..............................
........................................................................

 iter      E             dE          RMSdq      gap      omega  full diag
   1   -148.6587654 -0.148659E+03  0.174E-01    0.01       0.0  T
   2   -148.2726834  0.386082E+00  0.165E+00    0.30       1.0  T
   3   -148.6383069 -0.365623E+00  0.419E-01    0.03       1.0  T
   4   -148.6489243 -0.106174E-01  0.287E-01    0.01       1.0  T
   5   -148.6511196 -0.219530E-02  0.253E-01    0.01       1.0  T
   6   -148.6587181 -0.759845E-02  0.763E-02    0.00       1.0  T
   7   -148.6586550  0.630232E-04  0.760E-02    0.00       1.0  T
   8   -148.6585832  0.718256E-04  0.803E-02    0.01       1.0  T
   9   -148.6587455 -0.162296E-03  0.716E-02    0.00       1.0  T
  10   -148.6593159 -0.570422E-03  0.292E-02    0.01       1.0  T
  11   -148.6594274 -0.111499E-03  0.487E-03    0.01       2.1  T
  12   -148.6594156  0.118745E-04  0.107E-02    0.01       1.0  T
  13   -148.6594211 -0.551935E-05  0.850E-03    0.01       1.2  T
  14   -148.6594242 -0.309160E-05  0.693E-03    0.01       1.5  T
  15   -148.6594291 -0.496866E-05  0.329E-03    0.01       3.1  T
  16   -148.6594306 -0.142965E-05  0.116E-04    0.01      87.8  T
  17   -148.6594306  0.250856E-07  0.456E-04    0.01      22.3  T
  18   -148.6594306 -0.263206E-07  0.287E-05    0.01     354.4  T
     SCC iter.                  ...        0 min,  0.132 sec
     gradient                   ...        0 min,  0.020 sec
 * total energy  :  -146.1484358 Eh     change       -0.1336468E-02 Eh
   gradient norm :     0.0179167 Eh/α   predicted    -0.1505634E-02 (  12.66%)
   displ. norm   :     0.6154145 α      lambda       -0.2675774E-02
   maximum displ.:     0.2335584 α      in ANC's #15, #20, #5, ...

........................................................................
.............................. CYCLE   28 ..............................
........................................................................

 iter      E             dE          RMSdq      gap      omega  full diag
   1   -148.6693637 -0.148669E+03  0.125E-01    0.01       0.0  T
   2   -148.2864500  0.382914E+00  0.164E+00    0.28       1.0  T
   3   -148.6654168 -0.378967E+00  0.204E-01    0.01       1.0  T
   4   -148.6518217  0.135951E-01  0.368E-01    0.03       1.0  T
   5   -148.6411431  0.106786E-01  0.466E-01    0.03       1.0  T
   6   -148.6671405 -0.259974E-01  0.142E-01    0.01       1.0  T
   7   -148.6685459 -0.140541E-02  0.103E-01    0.01       1.0  T
   8   -148.6685522 -0.628545E-05  0.104E-01    0.00       1.0  T
   9   -148.6700076 -0.145541E-02  0.463E-03    0.01       2.2  T
  10   -148.6699770  0.306085E-04  0.158E-02    0.01       1.0  T
  11   -148.6699652  0.117605E-04  0.181E-02    0.00       1.0  T
  12   -148.6700097 -0.444511E-04  0.963E-04    0.01      10.5  T
  13   -148.6700087  0.101374E-05  0.294E-03    0.01       3.5  T
  14   -148.6700095 -0.858112E-06  0.135E-03    0.01       7.5  T
  15   -148.6700098 -0.231702E-06  0.206E-04    0.01      49.3  T
  16   -148.6700095  0.282371E-06  0.145E-03    0.01       7.0  T
  17   -148.6700098 -0.282632E-06  0.140E-04    0.01      72.3  T
     SCC iter.                  ...        0 min,  0.124 sec
     gradient                   ...        0 min,  0.020 sec
 * total energy  :  -146.1502569 Eh     change       -0.1821104E-02 Eh
   gradient norm :     0.0159932 Eh/α   predicted    -0.1844592E-02 (   1.29%)
   displ. norm   :     0.7067901 α      lambda       -0.1970227E-02
   maximum displ.:     0.2647142 α      in ANC's #20, #5, #15, ...

........................................................................
.............................. CYCLE   29 ..............................
........................................................................

 iter      E             dE          RMSdq      gap      omega  full diag
   1   -148.6665920 -0.148667E+03  0.172E-01    0.00       0.0  T
   2   -148.3887708  0.277821E+00  0.152E+00    0.22       1.0  T
   3   -148.6654851 -0.276714E+00  0.173E-01    0.01       1.0  T
   4   -148.6675767 -0.209164E-02  0.100E-01    0.00       1.0  T
   5   -148.6414652  0.261115E-01  0.450E-01    0.03       1.0  T
   6   -148.6258467  0.156186E-01  0.567E-01    0.05       1.0  T
   7   -148.6436261 -0.177794E-01  0.432E-01    0.02       1.0  T
   8   -148.6684664 -0.248404E-01  0.263E-02    0.01       1.0  T
   9   -148.6673918  0.107464E-02  0.943E-02    0.00       1.0  T
  10   -148.6685410 -0.114926E-02  0.164E-02    0.00       1.0  T
  11   -148.6685720 -0.309650E-04  0.403E-03    0.01       2.5  T
  12   -148.6685416  0.304135E-04  0.159E-02    0.01       1.0  T
  13   -148.6685508 -0.918783E-05  0.134E-02    0.00       1.0  T
  14   -148.6685731 -0.223427E-04  0.317E-03    0.01       3.2  T
  15   -148.6685741 -0.970253E-06  0.150E-03    0.01       6.8  T
  16   -148.6685744 -0.254664E-06  0.688E-04    0.01      14.8  T
  17   -148.6685744 -0.302389E-07  0.459E-04    0.01      22.1  T
     SCC iter.                  ...        0 min,  0.127 sec
     gradient                   ...        0 min,  0.020 sec
 * total energy  :  -146.1518515 Eh     change       -0.1594568E-02 Eh
   gradient norm :     0.0112999 Eh/α   predicted    -0.1477233E-02 (  -7.36%)
   displ. norm   :     0.7402108 α      lambda       -0.1758541E-02
   maximum displ.:     0.2716635 α      in ANC's #5, #20, #18, ...

........................................................................
.............................. CYCLE   30 ..............................
........................................................................

 iter      E             dE          RMSdq      gap      omega  full diag
   1   -148.6695133 -0.148670E+03  0.164E-01    0.01       0.0  T
   2   -148.2749213  0.394592E+00  0.167E+00    0.42       1.0  T
   3   -148.6545556 -0.379634E+00  0.359E-01    0.03       1.0  T
   4   -148.5208303  0.133725E+00  0.103E+00    0.08       1.0  T
   5   -148.6618367 -0.141006E+00  0.257E-01    0.02       1.0  T
   6   -148.6674054 -0.556870E-02  0.154E-01    0.01       1.0  T
   7   -148.6699789 -0.257350E-02  0.783E-02    0.00       1.0  T
   8   -148.6701537 -0.174821E-03  0.685E-02    0.01       1.0  T
   9   -148.6699879  0.165791E-03  0.769E-02    0.00       1.0  T
  10   -148.6704553 -0.467426E-03  0.498E-02    0.01       1.0  T
  11   -148.6707763 -0.320937E-03  0.529E-03    0.00       1.9  T
  12   -148.6707325  0.438050E-04  0.189E-02    0.01       1.0  T
  13   -148.6707800 -0.475792E-04  0.134E-03    0.00       7.6  T
  14   -148.6707788  0.124359E-05  0.334E-03    0.01       3.0  T
  15   -148.6707797 -0.898867E-06  0.211E-03    0.00       4.8  T
  16   -148.6707802 -0.503655E-06  0.831E-04    0.00      12.2  T
  17   -148.6707803 -0.504263E-07  0.554E-04    0.00      18.3  T
     SCC iter.                  ...        0 min,  0.132 sec
     gradient                   ...        0 min,  0.019 sec
 * total energy  :  -146.1533905 Eh     change       -0.1538979E-02 Eh
   gradient norm :     0.0103368 Eh/α   predicted    -0.1361040E-02 ( -11.56%)
   displ. norm   :     0.7636597 α      lambda       -0.1837603E-02
   maximum displ.:     0.3040604 α      in ANC's #18, #20, #5, ...

........................................................................
.............................. CYCLE   31 ..............................
........................................................................

 iter      E             dE          RMSdq      gap      omega  full diag
   1   -148.6725738 -0.148673E+03  0.185E-01    0.01       0.0  T
   2   -148.3889533  0.283620E+00  0.153E+00    0.27       1.0  T
   3   -148.6497862 -0.260833E+00  0.444E-01    0.03       1.0  T
   4   -148.3179661  0.331820E+00  0.157E+00    0.20       1.0  T
   5   -148.6683260 -0.350360E+00  0.184E-01    0.01       1.0  T
   6   -148.5903613  0.779647E-01  0.804E-01    0.07       1.0  T
   7   -148.6312351 -0.408738E-01  0.566E-01    0.03       1.0  T
   8   -148.6698859 -0.386509E-01  0.192E-01    0.02       1.0  T
   9   -148.6717259 -0.183999E-02  0.157E-01    0.01       1.0  T
  10   -148.6747482 -0.302227E-02  0.437E-02    0.01       1.0  T
  11   -148.6748374 -0.891823E-04  0.366E-02    0.00       1.0  T
  12   -148.6748115  0.258780E-04  0.395E-02    0.01       1.0  T
  13   -148.6750150 -0.203541E-03  0.400E-03    0.00       2.5  T
  14   -148.6749985  0.165320E-04  0.119E-02    0.01       1.0  T
  15   -148.6750173 -0.188381E-04  0.947E-04    0.00      10.7  T
  16   -148.6750172  0.162917E-06  0.146E-03    0.00       6.9  T
  17   -148.6750174 -0.262042E-06  0.255E-04    0.00      39.8  T
  18   -148.6750174  0.213183E-07  0.485E-04    0.00      20.9  T
     SCC iter.                  ...        0 min,  0.148 sec
     gradient                   ...        0 min,  0.019 sec
 * total energy  :  -146.1549663 Eh     change       -0.1575811E-02 Eh
   gradient norm :     0.0105616 Eh/α   predicted    -0.1454626E-02 (  -7.69%)
   displ. norm   :     0.7951607 α      lambda       -0.1805663E-02
   maximum displ.:     0.3502322 α      in ANC's #18, #20, #5, ...

........................................................................
.............................. CYCLE   32 ..............................
........................................................................

 iter      E             dE          RMSdq      gap      omega  full diag
   1   -148.6622681 -0.148662E+03  0.346E-01    0.02       0.0  T
   2   -148.2394565  0.422812E+00  0.178E+00    1.09       1.0  T
   3   -148.4979718 -0.258515E+00  0.112E+00    0.08       1.0  T
   4   -148.4099867  0.879852E-01  0.146E+00    0.20       1.0  T
   5   -148.5259796 -0.115993E+00  0.100E+00    0.08       1.0  T
   6   -148.5389285 -0.129489E-01  0.102E+00    0.09       1.0  T
   7   -148.6726856 -0.133757E+00  0.113E-01    0.01       1.0  T
   8   -148.6687965  0.388912E-02  0.204E-01    0.02       1.0  T
   9   -148.6730431 -0.424659E-02  0.106E-01    0.00       1.0  T
  10   -148.6742778 -0.123466E-02  0.455E-02    0.01       1.0  T
  11   -148.6741636  0.114115E-03  0.537E-02    0.00       1.0  T
  12   -148.6744964 -0.332783E-03  0.206E-02    0.01       1.0  T
  13   -148.6745494 -0.529639E-04  0.428E-03    0.00       2.4  T
  14   -148.6745437  0.564875E-05  0.753E-03    0.00       1.3  T
  15   -148.6745517 -0.794107E-05  0.647E-04    0.00      15.7  T
  16   -148.6745517 -0.325461E-07  0.398E-04    0.00      25.5  T
  17   -148.6745517  0.481066E-09  0.362E-04    0.00      28.1  T
[...]

 iter      E             dE          RMSdq      gap      omega  full diag
   1   -148.8749869 -0.148875E+03  0.747E-02    0.77       0.0  T
   2   -148.8749820  0.486462E-05  0.445E-02    0.77       1.0  T
   3   -148.8747313  0.250657E-03  0.452E-02    0.77       1.0  T
   4   -148.8749875 -0.256151E-03  0.710E-03    0.77       1.4  T
   5   -148.8749930 -0.545956E-05  0.190E-03    0.77       5.4  T
   6   -148.8749932 -0.219018E-06  0.117E-03    0.77       8.7  T
   7   -148.8749932 -0.296419E-07  0.733E-04    0.77      13.9  T
   8   -148.8749932 -0.711535E-08  0.332E-04    0.77      30.6  T
     SCC iter.                  ...        0 min,  0.069 sec
     gradient                   ...        0 min,  0.021 sec
 * total energy  :  -146.3522072 Eh     change       -0.7087389E-04 Eh
   gradient norm :     0.0030307 Eh/α   predicted    -0.7136405E-04 (   0.69%)
   displ. norm   :     0.4409395 α      lambda       -0.9763058E-04
   maximum displ.:     0.2299096 α      in ANC's #1, #4, #5, ...

........................................................................
.............................. CYCLE  406 ..............................
........................................................................

 iter      E             dE          RMSdq      gap      omega  full diag
   1   -148.8767747 -0.148877E+03  0.468E-02    0.77       0.0  T
   2   -148.8767623  0.123839E-04  0.297E-02    0.76       1.0  T
   3   -148.8765750  0.187351E-03  0.409E-02    0.76       1.0  T
   4   -148.8767786 -0.203668E-03  0.514E-03    0.76       2.0  T
   5   -148.8767811 -0.245315E-05  0.170E-03    0.76       6.0  T
   6   -148.8767812 -0.100104E-06  0.122E-03    0.76       8.3  T
   7   -148.8767812 -0.229818E-07  0.779E-04    0.76      13.0  T
   8   -148.8767812 -0.111345E-07  0.315E-04    0.76      32.2  T
     SCC iter.                  ...        0 min,  0.068 sec
     gradient                   ...        0 min,  0.022 sec
 * total energy  :  -146.3522827 Eh     change       -0.7549659E-04 Eh
   gradient norm :     0.0029492 Eh/α   predicted    -0.5830809E-04 ( -22.77%)
   displ. norm   :     0.4545901 α      lambda       -0.1020548E-03
   maximum displ.:     0.2356603 α      in ANC's #1, #4, #5, ...

........................................................................
.............................. CYCLE  407 ..............................
........................................................................

 iter      E             dE          RMSdq      gap      omega  full diag
   1   -148.8788312 -0.148879E+03  0.481E-02    0.76       0.0  T
   2   -148.8788209  0.103713E-04  0.302E-02    0.76       1.0  T
   3   -148.8786222  0.198642E-03  0.414E-02    0.75       1.0  T
   4   -148.8788345 -0.212262E-03  0.506E-03    0.76       2.0  T
   5   -148.8788369 -0.242148E-05  0.185E-03    0.75       5.5  T
   6   -148.8788370 -0.121790E-06  0.129E-03    0.75       7.9  T
   7   -148.8788371 -0.226117E-07  0.742E-04    0.75      13.7  T
   8   -148.8788371 -0.112785E-07  0.316E-04    0.75      32.1  T
     SCC iter.                  ...        0 min,  0.068 sec
     gradient                   ...        0 min,  0.021 sec
 * total energy  :  -146.3523563 Eh     change       -0.7359159E-04 Eh
   gradient norm :     0.0023833 Eh/α   predicted    -0.6157358E-04 ( -16.33%)
   displ. norm   :     0.5417832 α      lambda       -0.7376140E-04
   maximum displ.:     0.2868098 α      in ANC's #1, #4, #5, ...

........................................................................
.............................. CYCLE  408 ..............................
........................................................................

 iter      E             dE          RMSdq      gap      omega  full diag
   1   -148.8774822 -0.148877E+03  0.592E-02    0.75       0.0  T
   2   -148.8774819  0.294106E-06  0.350E-02    0.75       1.0  T
   3   -148.8774015  0.803864E-04  0.257E-02    0.75       1.0  T
   4   -148.8774811 -0.795731E-04  0.642E-03    0.75       1.6  T
   5   -148.8774854 -0.433635E-05  0.208E-03    0.75       4.9  T
   6   -148.8774855 -0.105739E-06  0.153E-03    0.75       6.6  T
   7   -148.8774856 -0.314639E-07  0.807E-04    0.75      12.6  T
   8   -148.8774856 -0.156090E-07  0.300E-04    0.75      33.9  T
     SCC iter.                  ...        0 min,  0.065 sec
     gradient                   ...        0 min,  0.021 sec
 * total energy  :  -146.3524150 Eh     change       -0.5865539E-04 Eh
   gradient norm :     0.0025495 Eh/α   predicted    -0.4771024E-04 ( -18.66%)
   displ. norm   :     0.4564236 α      lambda       -0.7487456E-04
   maximum displ.:     0.2424350 α      in ANC's #1, #4, #5, ...

........................................................................
.............................. CYCLE  409 ..............................
........................................................................

 iter      E             dE          RMSdq      gap      omega  full diag
   1   -148.8786705 -0.148879E+03  0.520E-02    0.75       0.0  T
   2   -148.8786714 -0.962246E-06  0.306E-02    0.75       1.0  T
   3   -148.8786501  0.213031E-04  0.144E-02    0.75       1.0  T
   4   -148.8786719 -0.217349E-04  0.385E-03    0.75       2.6  T
   5   -148.8786728 -0.883868E-06  0.261E-03    0.75       3.9  T
   6   -148.8786731 -0.335721E-06  0.164E-03    0.75       6.2  T
   7   -148.8786732 -0.606964E-07  0.786E-04    0.75      12.9  T
   8   -148.8786732 -0.211379E-07  0.319E-04    0.75      31.8  T
     SCC iter.                  ...        0 min,  0.065 sec
     gradient                   ...        0 min,  0.021 sec
 * total energy  :  -146.3524716 Eh     change       -0.5658312E-04 Eh
   gradient norm :     0.0021944 Eh/α   predicted    -0.4523845E-04 ( -20.05%)
   displ. norm   :     0.4987460 α      lambda       -0.6627517E-04
   maximum displ.:     0.2671244 α      in ANC's #1, #4, #5, ...

........................................................................
.............................. CYCLE  410 ..............................
........................................................................

 iter      E             dE          RMSdq      gap      omega  full diag
   1   -148.8767716 -0.148877E+03  0.596E-02    0.75       0.0  T
   2   -148.8767686  0.297058E-05  0.354E-02    0.74       1.0  T
   3   -148.8766061  0.162574E-03  0.367E-02    0.75       1.0  T
   4   -148.8767720 -0.165904E-03  0.607E-03    0.74       1.7  T
   5   -148.8767758 -0.386418E-05  0.210E-03    0.74       4.8  T
   6   -148.8767760 -0.123106E-06  0.141E-03    0.74       7.2  T
   7   -148.8767760 -0.184163E-07  0.809E-04    0.74      12.6  T
   8   -148.8767760 -0.187463E-07  0.351E-04    0.74      29.0  T
     SCC iter.                  ...        0 min,  0.064 sec
     gradient                   ...        0 min,  0.021 sec
 * total energy  :  -146.3525239 Eh     change       -0.5233349E-04 Eh
   gradient norm :     0.0020433 Eh/α   predicted    -0.4138373E-04 ( -20.92%)
   displ. norm   :     0.4017627 α      lambda       -0.7240796E-04
   maximum displ.:     0.2083035 α      in ANC's #1, #4, #3, ...

........................................................................
.............................. CYCLE  411 ..............................
........................................................................

 iter      E             dE          RMSdq      gap      omega  full diag
   1   -148.8779953 -0.148878E+03  0.553E-02    0.74       0.0  T
   2   -148.8779897  0.558923E-05  0.335E-02    0.74       1.0  T
   3   -148.8777834  0.206238E-03  0.416E-02    0.74       1.0  T
   4   -148.8779967 -0.213219E-03  0.644E-03    0.74       1.6  T
   5   -148.8780007 -0.406733E-05  0.242E-03    0.74       4.2  T
   6   -148.8780008 -0.102056E-06  0.169E-03    0.74       6.0  T
   7   -148.8780009 -0.356761E-07  0.961E-04    0.74      10.6  T
   8   -148.8780009 -0.271571E-07  0.473E-04    0.74      21.5  T
     SCC iter.                  ...        0 min,  0.061 sec
     gradient                   ...        0 min,  0.021 sec
 * total energy  :  -146.3525758 Eh     change       -0.5190956E-04 Eh
   gradient norm :     0.0025518 Eh/α   predicted    -0.4205175E-04 ( -18.99%)
   displ. norm   :     0.4207623 α      lambda       -0.6094063E-04
   maximum displ.:     0.2202721 α      in ANC's #1, #4, #3, ...

........................................................................
.............................. CYCLE  412 ..............................
........................................................................

 iter      E             dE          RMSdq      gap      omega  full diag
   1   -148.8766478 -0.148877E+03  0.533E-02    0.74       0.0  T
   2   -148.8766489 -0.112491E-05  0.313E-02    0.74       1.0  T
   3   -148.8766114  0.374885E-04  0.186E-02    0.74       1.0  T
   4   -148.8766471 -0.357096E-04  0.596E-03    0.74       1.7  T
   5   -148.8766509 -0.375631E-05  0.251E-03    0.74       4.0  T
   6   -148.8766513 -0.394693E-06  0.144E-03    0.74       7.1  T
   7   -148.8766513 -0.116966E-07  0.102E-03    0.74       9.9  T
   8   -148.8766513 -0.338817E-07  0.510E-04    0.74      19.9  T
   9   -148.8766513 -0.172150E-09  0.379E-04    0.74      26.8  T
     SCC iter.                  ...        0 min,  0.068 sec
     gradient                   ...        0 min,  0.021 sec
 * total energy  :  -146.3526256 Eh     change       -0.4984660E-04 Eh
   gradient norm :     0.0027457 Eh/α   predicted    -0.3587021E-04 ( -28.04%)
   displ. norm   :     0.4336705 α      lambda       -0.8783791E-04
   maximum displ.:     0.2221281 α      in ANC's #4, #1, #3, ...

........................................................................
.............................. CYCLE  413 ..............................
........................................................................

 iter      E             dE          RMSdq      gap      omega  full diag
   1   -148.8767525 -0.148877E+03  0.609E-02    0.74       0.0  T
   2   -148.8767554 -0.287057E-05  0.358E-02    0.73       1.0  T
   3   -148.8767303  0.251104E-04  0.168E-02    0.74       1.0  T
   4   -148.8767559 -0.256812E-04  0.499E-03    0.74       2.0  T
   5   -148.8767570 -0.109209E-05  0.335E-03    0.73       3.0  T
   6   -148.8767579 -0.848218E-06  0.228E-03    0.74       4.5  T
   7   -148.8767581 -0.179372E-06  0.140E-03    0.74       7.3  T
   8   -148.8767581 -0.523730E-07  0.783E-04    0.74      13.0  T
   9   -148.8767581 -0.412783E-08  0.557E-04    0.74      18.2  T
     SCC iter.                  ...        0 min,  0.071 sec
     gradient                   ...        0 min,  0.021 sec
 * total energy  :  -146.3526970 Eh     change       -0.7136043E-04 Eh
   gradient norm :     0.0030223 Eh/α   predicted    -0.5218401E-04 ( -26.87%)
   displ. norm   :     0.4932155 α      lambda       -0.1163461E-03
   maximum displ.:     0.2513292 α      in ANC's #4, #1, #3, ...

........................................................................
.............................. CYCLE  414 ..............................
........................................................................

 iter      E             dE          RMSdq      gap      omega  full diag
   1   -148.8772185 -0.148877E+03  0.688E-02    0.74       0.0  T
   2   -148.8772097  0.881822E-05  0.422E-02    0.73       1.0  T
   3   -148.8768819  0.327784E-03  0.529E-02    0.73       1.0  T
   4   -148.8772175 -0.335586E-03  0.117E-02    0.73       1.0  T
   5   -148.8772309 -0.134041E-04  0.342E-03    0.73       3.0  T
   6   -148.8772310 -0.128202E-06  0.287E-03    0.73       3.5  T
   7   -148.8772311 -0.106579E-06  0.191E-03    0.73       5.3  T
   8   -148.8772312 -0.111488E-06  0.104E-03    0.73       9.8  T
   9   -148.8772313 -0.184649E-07  0.682E-04    0.73      14.9  T
  10   -148.8772313 -0.135703E-07  0.283E-04    0.73      35.9  T
     SCC iter.                  ...        0 min,  0.076 sec
     gradient                   ...        0 min,  0.021 sec
 * total energy  :  -146.3527872 Eh     change       -0.9020102E-04 Eh
   gradient norm :     0.0034390 Eh/α   predicted    -0.7232789E-04 ( -19.81%)
   displ. norm   :     0.4898859 α      lambda       -0.1189552E-03
   maximum displ.:     0.2512205 α      in ANC's #4, #3, #1, ...

........................................................................
.............................. CYCLE  415 ..............................
........................................................................

 iter      E             dE          RMSdq      gap      omega  full diag
   1   -148.8771814 -0.148877E+03  0.680E-02    0.73       0.0  T
   2   -148.8771641  0.173617E-04  0.428E-02    0.72       1.0  T
   3   -148.8767689  0.395174E-03  0.583E-02    0.72       1.0  T
   4   -148.8771837 -0.414838E-03  0.115E-02    0.72       1.0  T
   5   -148.8771957 -0.119395E-04  0.372E-03    0.72       2.7  T
   6   -148.8771958 -0.108613E-06  0.315E-03    0.72       3.2  T
   7   -148.8771960 -0.165966E-06  0.199E-03    0.72       5.1  T
   8   -148.8771961 -0.104140E-06  0.105E-03    0.72       9.7  T
   9   -148.8771961 -0.266612E-07  0.644E-04    0.72      15.8  T
  10   -148.8771961 -0.128286E-07  0.285E-04    0.72      35.6  T
     SCC iter.                  ...        0 min,  0.077 sec
     gradient                   ...        0 min,  0.021 sec
 * total energy  :  -146.3528779 Eh     change       -0.9071543E-04 Eh
   gradient norm :     0.0041739 Eh/α   predicted    -0.7375653E-04 ( -18.69%)
   displ. norm   :     0.5065322 α      lambda       -0.1309564E-03
   maximum displ.:     0.2622794 α      in ANC's #4, #3, #1, ...

........................................................................
.............................. CYCLE  416 ..............................
........................................................................

 iter      E             dE          RMSdq      gap      omega  full diag
   1   -148.8767446 -0.148877E+03  0.689E-02    0.72       0.0  T
   2   -148.8767326  0.120368E-04  0.428E-02    0.72       1.0  T
   3   -148.8763529  0.379656E-03  0.566E-02    0.71       1.0  T
   4   -148.8767446 -0.391646E-03  0.122E-02    0.72       1.0  T
   5   -148.8767581 -0.135478E-04  0.411E-03    0.72       2.5  T
   6   -148.8767582 -0.813312E-07  0.347E-03    0.72       2.9  T
   7   -148.8767584 -0.193416E-06  0.211E-03    0.72       4.8  T
   8   -148.8767585 -0.143045E-06  0.103E-03    0.72       9.8  T
   9   -148.8767586 -0.266842E-07  0.638E-04    0.72      15.9  T
  10   -148.8767586 -0.117981E-07  0.284E-04    0.72      35.7  T
     SCC iter.                  ...        0 min,  0.078 sec
     gradient                   ...        0 min,  0.021 sec
 * total energy  :  -146.3529729 Eh     change       -0.9494301E-04 Eh
   gradient norm :     0.0046067 Eh/α   predicted    -0.8227994E-04 ( -13.34%)
   displ. norm   :     0.5024719 α      lambda       -0.1450208E-03
   maximum displ.:     0.2586354 α      in ANC's #4, #3, #1, ...

........................................................................
.............................. CYCLE  417 ..............................
........................................................................

 iter      E             dE          RMSdq      gap      omega  full diag
   1   -148.8774910 -0.148877E+03  0.666E-02    0.72       0.0  T
   2   -148.8774848  0.625089E-05  0.409E-02    0.71       1.0  T
   3   -148.8771672  0.317535E-03  0.508E-02    0.71       1.0  T
   4   -148.8774899 -0.322704E-03  0.116E-02    0.71       1.0  T
   5   -148.8775018 -0.118300E-04  0.428E-03    0.71       2.4  T
   6   -148.8775018 -0.278850E-07  0.358E-03    0.71       2.8  T
   7   -148.8775020 -0.194433E-06  0.209E-03    0.71       4.8  T
   8   -148.8775022 -0.163201E-06  0.955E-04    0.71      10.6  T
   9   -148.8775022 -0.213717E-07  0.588E-04    0.71      17.3  T
     SCC iter.                  ...        0 min,  0.069 sec
     gradient                   ...        0 min,  0.021 sec
 * total energy  :  -146.3530845 Eh     change       -0.1115924E-03 Eh
   gradient norm :     0.0039648 Eh/α   predicted    -0.9082275E-04 ( -18.61%)
   displ. norm   :     0.5255812 α      lambda       -0.1543746E-03
   maximum displ.:     0.2875968 α      in ANC's #4, #3, #1, ...

........................................................................
.............................. CYCLE  418 ..............................
........................................................................

 iter      E             dE          RMSdq      gap      omega  full diag
   1   -148.8774596 -0.148877E+03  0.661E-02    0.71       0.0  T
   2   -148.8774633 -0.372879E-05  0.389E-02    0.70       1.0  T
   3   -148.8774042  0.591762E-04  0.246E-02    0.70       1.0  T
   4   -148.8774569 -0.527499E-04  0.976E-03    0.70       1.0  T
   5   -148.8774659 -0.895298E-05  0.535E-03    0.70       1.9  T
   6   -148.8774674 -0.158519E-05  0.325E-03    0.70       3.1  T
   7   -148.8774675 -0.698356E-07  0.210E-03    0.70       4.8  T
   8   -148.8774677 -0.154191E-06  0.806E-04    0.70      12.6  T
   9   -148.8774677 -0.712171E-08  0.543E-04    0.70      18.7  T
     SCC iter.                  ...        0 min,  0.069 sec
     gradient                   ...        0 min,  0.021 sec
 * total energy  :  -146.3532115 Eh     change       -0.1270573E-03 Eh
   gradient norm :     0.0035378 Eh/α   predicted    -0.9851199E-04 ( -22.47%)
   displ. norm   :     0.5411421 α      lambda       -0.1762410E-03
   maximum displ.:     0.3010562 α      in ANC's #4, #3, #1, ...
 * RMSD in coord.:     1.4638657 α      energy gain  -0.2872156E-02 Eh

generating ANC from exact Hessian ...
Using Lindh-Hessian (1995)
 Shifting diagonal of input Hessian by   1.006931813080889E-002
 Lowest  eigenvalues of input Hessian
    0.010000    0.000000    0.000000    0.000000    0.000000    0.000000
    0.000000    0.010124    0.010204    0.010276    0.010286    0.010423
    0.010727    0.010812    0.010865    0.011201    0.011266    0.011429
 Highest eigenvalues
    2.126657    2.138970    2.143186    2.375991    2.721874    3.360326
 

........................................................................
.............................. CYCLE  419 ..............................
........................................................................

 iter      E             dE          RMSdq      gap      omega  full diag
   1   -148.8795089 -0.148880E+03  0.664E-02    0.70       0.0  T
   2   -148.8795040  0.489579E-05  0.401E-02    0.69       1.0  T
   3   -148.8791943  0.309687E-03  0.516E-02    0.70       1.0  T
   4   -148.8795093 -0.315015E-03  0.116E-02    0.70       1.0  T
   5   -148.8795206 -0.112989E-04  0.503E-03    0.70       2.0  T
   6   -148.8795213 -0.677204E-06  0.347E-03    0.70       2.9  T
   7   -148.8795214 -0.939906E-07  0.217E-03    0.70       4.7  T
   8   -148.8795216 -0.193646E-06  0.868E-04    0.70      11.7  T
   9   -148.8795216 -0.659364E-08  0.583E-04    0.70      17.4  T
     SCC iter.                  ...        0 min,  0.069 sec
     gradient                   ...        0 min,  0.021 sec
 * total energy  :  -146.3533405 Eh     change       -0.1290111E-03 Eh
   gradient norm :     0.0050316 Eh/α   predicted     0.0000000E+00 (-100.00%)
   displ. norm   :     0.0561938 α      lambda       -0.8097129E-04
   maximum displ.:     0.0181225 α      in ANC's #3, #8, #15, ...

........................................................................
.............................. CYCLE  420 ..............................
........................................................................

 iter      E             dE          RMSdq      gap      omega  full diag
   1   -148.8795916 -0.148880E+03  0.168E-02    0.70       0.0  T
   2   -148.8795882  0.340218E-05  0.118E-02    0.70       1.0  T
   3   -148.8795639  0.243387E-04  0.160E-02    0.69       1.0  T
