      -----------------------------------------------------------      
     |                   =====================                   |     
     |                           x T B                           |     
     |                   =====================                   |     
     |                         S. Grimme                         |     
     |          Mulliken Center for Theoretical Chemistry        |     
     |                    University of Bonn                     |     
      -----------------------------------------------------------      

   * xtb version 6.7.1 (edcfbbe) compiled by 'albert@albert-system' on 2024-07-22

   xtb is free software: you can redistribute it and/or modify it under
   the terms of the GNU Lesser General Public License as published by
   the Free Software Foundation, either version 3 of the License, or
   (at your option) any later version.
   
   xtb is distributed in the hope that it will be useful,
   but WITHOUT ANY WARRANTY; without even the implied warranty of
   MERCHANTABILITY or FITNESS FOR A PARTICULAR PURPOSE.  See the
   GNU Lesser General Public License for more details.
   
   Cite this work as:
   * C. Bannwarth, E. Caldeweyher, S. Ehlert, A. Hansen, P. Pracht,
     J. Seibert, S. Spicher, S. Grimme, WIREs Comput. Mol. Sci., 2020, 11,
     e01493. DOI: 10.1002/wcms.1493
   
   for GFN2-xTB:
   * C. Bannwarth, S. Ehlert and S. Grimme., J. Chem. Theory Comput., 2019,
     15, 1652-1671. DOI: 10.1021/acs.jctc.8b01176
   for GFN1-xTB:
   * S. Grimme, C. Bannwarth, P. Shushkov, J. Chem. Theory Comput., 2017,
     13, 1989-2009. DOI: 10.1021/acs.jctc.7b00118
   for GFN0-xTB:
   * P. Pracht, E. Caldeweyher, S. Ehlert, S. Grimme, ChemRxiv, 2019, preprint.
     DOI: 10.26434/chemrxiv.8326202.v1
   for GFN-FF:
   * S. Spicher and S. Grimme, Angew. Chem. Int. Ed., 2020, 59, 15665-15673.
     DOI: 10.1002/anie.202004239
   
   for ALPB and GBSA implicit solvation:
   * S. Ehlert, M. Stahn, S. Spicher, S. Grimme, J. Chem. Theory Comput.,
     2021, 17, 4250-4261. DOI: 10.1021/acs.jctc.1c00471
   
   for ddCOSMO and CPCM-X implicit solvation:
   * M. Stahn, S. Ehlert, S. Grimme, J. Phys. Chem. A,
     2023, XX, XXXX-XXXX. DOI: 10.1021/acs.jpca.3c04382
   
   for DFT-D4:
   * E. Caldeweyher, C. Bannwarth and S. Grimme, J. Chem. Phys., 2017,
     147, 034112. DOI: 10.1063/1.4993215
   * E. Caldeweyher, S. Ehlert, A. Hansen, H. Neugebauer, S. Spicher,
     C. Bannwarth and S. Grimme, J. Chem. Phys., 2019, 150, 154122.
     DOI: 10.1063/1.5090222
   * E. Caldeweyher, J.-M. Mewes, S. Ehlert and S. Grimme, Phys. Chem. Chem. Phys.
     2020, 22, 8499-8512. DOI: 10.1039/D0CP00502A
   
   for sTDA-xTB:
   * S. Grimme and C. Bannwarth, J. Chem. Phys., 2016, 145, 054103.
     DOI: 10.1063/1.4959605
   
   in the mass-spec context:
   * V. Asgeirsson, C. Bauer and S. Grimme, Chem. Sci., 2017, 8, 4879.
     DOI: 10.1039/c7sc00601b
   * J. Koopman and S. Grimme, ACS Omega 2019, 4, 12, 15120-15133.
     DOI: 10.1021/acsomega.9b02011
   
   for metadynamics refer to:
   * S. Grimme, J. Chem. Theory Comput., 2019, 155, 2847-2862
     DOI: 10.1021/acs.jctc.9b00143
   
   for SPH calculations refer to:
   * S. Spicher and S. Grimme, J. Chem. Theory Comput., 2021, 17, 1701-1714
     DOI: 10.1021/acs.jctc.0c01306
   
   for ONIOM refer to:
   * C. Plett, A. Katbashev, S. Ehlert, S. Grimme, M. Bursch,
     Phys. Chem. Chem. Phys., 2023, 25, 17860-17868. DOI: 10.1039/D3CP02178E
   
   for DIPRO refer to:
   * J. Kohn, N. Gildemeister, S. Grimme, D. Fazzi, A. Hansen,
     J. Chem. Phys., 2023, just accepted.
   
   for PTB refer to:
   * S. Grimme, M. Mueller, A. Hansen, J. Chem. Phys., 2023, 158, 124111.
     DOI: 10.1063/5.0137838
   
   with help from (in alphabetical order)
   P. Atkinson, C. Bannwarth, F. Bohle, G. Brandenburg, E. Caldeweyher
   M. Checinski, S. Dohm, S. Ehlert, S. Ehrlich, I. Gerasimov, C. Hölzer
   A. Katbashev, J. Kohn, J. Koopman, C. Lavigne, S. Lehtola, F. März, M. Müller,
   F. Musil, H. Neugebauer, J. Pisarek, C. Plett, P. Pracht, F. Pultar,
   J. Seibert, P. Shushkov, S. Spicher, M. Stahn, M. Steiner, T. Strunk,
   J. Stückrath, T. Rose, and J. Unsleber
   
 * started run on 2026/01/26 at 16:45:13.302     
   ID    Z sym.   atoms
    1    8 O      1, 3, 31, 32
    2    6 C      2, 6-30, 33-42
    3   28 Ni     4
    4    7 N      5
    5    1 H      43-69
constraining bond 31 4 to    1.8050000 Å, actual value:    1.9875415 Å
constraining bond 3 4 to    1.8050000 Å, actual value:    1.9908145 Å
constraining bond 32 4 to    1.8050000 Å, actual value:    1.9906932 Å
constraining bond 5 4 to    1.8525000 Å, actual value:    2.0079191 Å
constraining angle 3 4 31 to   90.0000000°, actual value:   92.7123774°
constraining angle 31 4 5 to  180.0000000°, actual value:  177.1144078°
constraining angle 3 4 32 to  180.0000000°, actual value:  177.4287743°

           -------------------------------------------------
          |                Calculation Setup                |
           -------------------------------------------------

          program call               : /home/henryteahan/opt/xtb-6.7.1/xtb-dist/bin/xtb sep_embed_final.xyz --opt verytight --iterations 1000 --input constrain2.inp --gfn2 --parallel 8 --chrg 0
          coordinate file            : sep_embed_final.xyz
          omp threads                :                     8


           -------------------------------------------------
          |                 G F N 2 - x T B                 |
           -------------------------------------------------

        Reference                      10.1021/acs.jctc.8b01176
      * Hamiltonian:
        H0-scaling (s, p, d)           1.850000    2.230000    2.230000
        zeta-weighting                 0.500000
      * Dispersion:
        s8                             2.700000
        a1                             0.520000
        a2                             5.000000
        s9                             5.000000
      * Repulsion:
        kExp                           1.500000    1.000000
        rExp                           1.000000
      * Coulomb:
        alpha                          2.000000
        third order                    shell-resolved
        anisotropic                    true
        a3                             3.000000
        a5                             4.000000
        cn-shift                       1.200000
        cn-exp                         4.000000
        max-rad                        5.000000

q/qsh data taken from xtbrestart
CAMM data taken from xtbrestart

          ...................................................
          :                      SETUP                      :
          :.................................................:
          :  # basis functions                 201          :
          :  # atomic orbitals                 200          :
          :  # shells                          112          :
          :  # electrons                       210          :
          :  max. iterations                  1000          :
          :  Hamiltonian                  GFN2-xTB          :
          :  restarted?                       true          :
          :  GBSA solvation                  false          :
          :  PC potential                    false          :
          :  electronic temp.          300.0000000     K    :
          :  accuracy                    1.0000000          :
          :  -> integral cutoff          0.2500000E+02      :
          :  -> integral neglect         0.1000000E-07      :
          :  -> SCF convergence          0.1000000E-05 Eh   :
          :  -> wf. convergence          0.1000000E-03 e    :
          :  Broyden damping             0.4000000          :
          :  net charge                          0          :
          :  unpaired electrons                  0          :
          ...................................................

 iter      E             dE          RMSdq      gap      omega  full diag
   1   -115.7978309 -0.115798E+03  0.573E+00    0.55       0.0  T
   2   -112.0185962  0.377923E+01  0.701E+00    0.01       1.0  T
   3   -115.5015853 -0.348299E+01  0.396E+00    0.22       1.0  T
   4   -116.1122496 -0.610664E+00  0.201E+00    0.23       1.0  T
   5   -116.2928042 -0.180555E+00  0.166E+00    0.67       1.0  T
   6   -116.5829775 -0.290173E+00  0.104E+00    0.20       1.0  T
   7   -116.5884455 -0.546806E-02  0.801E-01    0.19       1.0  T
   8   -116.5957050 -0.725947E-02  0.778E-01    0.12       1.0  T
   9   -116.5776822  0.180228E-01  0.667E-01    0.24       1.0  T
  10   -116.6175980 -0.399158E-01  0.371E-01    0.11       1.0  T
  11   -116.5471237  0.704743E-01  0.727E-01    0.08       1.0  T
  12   -116.6235398 -0.764161E-01  0.231E-01    0.05       1.0  T
  13   -116.6241612 -0.621340E-03  0.221E-01    0.04       1.0  T
  14   -116.6253270 -0.116587E-02  0.192E-01    0.04       1.0  T
  15   -116.6277528 -0.242574E-02  0.134E-01    0.07       1.0  T
  16   -116.6289946 -0.124186E-02  0.101E-01    0.07       1.0  T
  17   -116.6296903 -0.695654E-03  0.743E-02    0.06       1.0  T
  18   -116.6305283 -0.838023E-03  0.961E-03    0.06       1.3  T
  19   -116.6305238  0.451836E-05  0.858E-03    0.06       1.4  T
  20   -116.6305034  0.204219E-04  0.139E-02    0.06       1.0  T
  21   -116.6305303 -0.269797E-04  0.427E-03    0.06       2.8  T
  22   -116.6305318 -0.148855E-05  0.271E-03    0.06       4.4  T
  23   -116.6305326 -0.738923E-06  0.147E-03    0.06       8.2  T
  24   -116.6305329 -0.360278E-06  0.178E-04    0.06      67.8  T
  25   -116.6305328  0.122534E-06  0.890E-04    0.06      13.5  T

   *** convergence criteria satisfied after 25 iterations ***

         #    Occupation            Energy/Eh            Energy/eV
      -------------------------------------------------------------
         1        2.0000           -0.7134105             -19.4129
       ...           ...                  ...                  ...
        99        2.0000           -0.3860894             -10.5060
       100        2.0000           -0.3840101             -10.4494
       101        2.0000           -0.3792666             -10.3204
       102        2.0000           -0.3762300             -10.2377
       103        2.0000           -0.3734748             -10.1628
       104        2.0000           -0.3696379             -10.0584
       105        1.4891           -0.3522877              -9.5862 (HOMO)
       106        0.5109           -0.3502549              -9.5309 (LUMO)
       107                         -0.3266062              -8.8874
       108                         -0.2795673              -7.6074
       109                         -0.2649576              -7.2099
       110                         -0.2386927              -6.4952
       ...                                ...                  ...
       200                          1.0126814              27.5565
      -------------------------------------------------------------
                  HL-Gap            0.0020328 Eh            0.0553 eV
             Fermi-level           -0.3512713 Eh           -9.5586 eV

 SCC (total)                   0 d,  0 h,  0 min,  0.167 sec
 SCC setup                      ...        0 min,  0.000 sec (  0.193%)
 Dispersion                     ...        0 min,  0.001 sec (  0.743%)
 classical contributions        ...        0 min,  0.000 sec (  0.036%)
 integral evaluation            ...        0 min,  0.007 sec (  4.282%)
 iterations                     ...        0 min,  0.144 sec ( 86.552%)
 molecular gradient             ...        0 min,  0.013 sec (  7.847%)
 printout                       ...        0 min,  0.001 sec (  0.317%)

         :::::::::::::::::::::::::::::::::::::::::::::::::::::
         ::                     SUMMARY                     ::
         :::::::::::::::::::::::::::::::::::::::::::::::::::::
         :: total energy            -114.737149484874 Eh    ::
         :: gradient norm              0.307958474919 Eh/a0 ::
         :: HOMO-LUMO gap              0.055315951646 eV    ::
         ::.................................................::
         :: SCC energy              -116.629124157364 Eh    ::
         :: -> isotropic ES            0.103096630890 Eh    ::
         :: -> anisotropic ES          0.001243622450 Eh    ::
         :: -> anisotropic XC          0.045662181894 Eh    ::
         :: -> dispersion             -0.098276811273 Eh    ::
         :: repulsion energy           1.800278850299 Eh    ::
         :: add. restraining           0.091695822190 Eh    ::
         :: total charge               0.000000000001 e     ::
         :::::::::::::::::::::::::::::::::::::::::::::::::::::

      ----------------------------------------------------------- 
     |                   =====================                   |
     |                        A N C O P T                        |
     |                   =====================                   |
     |               Approximate Normal Coordinate               |
     |                Rational Function Optimizer                |
      ----------------------------------------------------------- 
      ----------------------------------------------------------- 
     |                   =====================                   |
     |                        A N C O P T                        |
     |                   =====================                   |
     |               Approximate Normal Coordinate               |
     |                Rational Function Optimizer                |
      ----------------------------------------------------------- 

          ...................................................
          :                      SETUP                      :
          :.................................................:
          :   optimization level         verytight          :
          :   max. optcycles                  1380          :
          :   ANC micro-cycles                  20          :
          :   degrees of freedom               201          :
          :.................................................:
          :   RF solver                   davidson          :
          :   write xtbopt.log                true          :
          :   linear?                        false          :
          :   energy convergence         0.1000000E-06 Eh   :
          :   grad. convergence          0.2000000E-03 Eh/α :
          :   maxmium RF displ.          1.0000000          :
          :   Hlow (freq-cutoff)         0.1000000E-01      :
          :   Hmax (freq-cutoff)         5.0000000          :
          :   S6 in model hess.         20.0000000          :
          ...................................................

generating ANC from exact Hessian ...
Using Lindh-Hessian (1995)
 Shifting diagonal of input Hessian by   9.801642244989219E-003
 Lowest  eigenvalues of input Hessian
    0.000000    0.000000    0.000000    0.000000    0.000000    0.000000
    0.010000    0.010029    0.010309    0.010362    0.010653    0.010771
    0.010938    0.011257    0.011276    0.011881    0.012212    0.012232
 Highest eigenvalues
    2.080335    2.092119    2.111877    2.252094    2.303441    2.403131
 

........................................................................
.............................. CYCLE    1 ..............................
........................................................................

 iter      E             dE          RMSdq      gap      omega  full diag
   1   -116.6305329 -0.116631E+03  0.971E-05    0.06       0.0  T
   2   -116.6305327  0.233088E-06  0.118E-03    0.06      10.2  T
   3   -116.6305329 -0.233807E-06  0.530E-05    0.06     227.2  T
   4   -116.6305329  0.293682E-09  0.602E-05    0.06     199.8  T
     SCC iter.                  ...        0 min,  0.027 sec
     gradient                   ...        0 min,  0.013 sec
 * total energy  :  -114.7371496 Eh     change       -0.1235204E-06 Eh
   gradient norm :     0.3079795 Eh/α   predicted     0.0000000E+00 (-100.00%)
   displ. norm   :     0.4478685 α      lambda       -0.1180570E+00
   maximum displ.:     0.1183685 α      in ANC's #143, #137, #133, ...

........................................................................
.............................. CYCLE    2 ..............................
........................................................................

 iter      E             dE          RMSdq      gap      omega  full diag
   1   -116.5464129 -0.116546E+03  0.952E-01    0.07       0.0  T
   2   -116.3184475  0.227965E+00  0.141E+00    0.72       1.0  T
   3   -116.4159584 -0.975110E-01  0.116E+00    0.14       1.0  T
   4   -116.5370259 -0.121067E+00  0.748E-01    0.36       1.0  T
   5   -116.5533120 -0.162862E-01  0.629E-01    0.20       1.0  T
   6   -116.6056939 -0.523819E-01  0.183E-01    0.02       1.0  T
   7   -116.6013535  0.434040E-02  0.230E-01    0.01       1.0  T
   8   -116.6056112 -0.425763E-02  0.140E-01    0.02       1.0  T
   9   -116.6074881 -0.187696E-02  0.863E-02    0.05       1.0  T
  10   -116.6081248 -0.636652E-03  0.624E-02    0.03       1.0  T
  11   -116.6085647 -0.439930E-03  0.345E-02    0.04       1.0  T
  12   -116.6087324 -0.167717E-03  0.120E-02    0.04       1.0  T
  13   -116.6086857  0.467420E-04  0.202E-02    0.04       1.0  T
  14   -116.6087471 -0.613719E-04  0.600E-03    0.04       2.0  T
  15   -116.6087526 -0.553757E-05  0.157E-03    0.03       7.7  T
  16   -116.6087529 -0.312663E-06  0.632E-04    0.03      19.1  T
  17   -116.6087527  0.200945E-06  0.125E-03    0.03       9.6  T
  18   -116.6087529 -0.233947E-06  0.357E-04    0.03      33.7  T
     SCC iter.                  ...        0 min,  0.101 sec
     gradient                   ...        0 min,  0.013 sec
 * total energy  :  -114.8211364 Eh     change       -0.8398680E-01 Eh
   gradient norm :     0.1263960 Eh/α   predicted    -0.7087054E-01 ( -15.62%)
   displ. norm   :     0.4129271 α      lambda       -0.3747413E-01
   maximum displ.:     0.1687806 α      in ANC's #52, #14, #39, ...

........................................................................
.............................. CYCLE    3 ..............................
........................................................................

 iter      E             dE          RMSdq      gap      omega  full diag
   1   -116.5677339 -0.116568E+03  0.675E-01    0.07       0.0  T
   2   -116.4071142  0.160620E+00  0.117E+00    0.89       1.0  T
   3   -116.6006026 -0.193488E+00  0.279E-01    0.05       1.0  T
   4   -116.6044420 -0.383942E-02  0.126E-01    0.04       1.0  T
   5   -116.6038217  0.620308E-03  0.109E-01    0.03       1.0  T
   6   -116.5953358  0.848591E-02  0.246E-01    0.07       1.0  T
   7   -116.5874948  0.784095E-02  0.330E-01    0.02       1.0  T
   8   -116.6048188 -0.173239E-01  0.164E-02    0.04       1.0  T
   9   -116.6047980  0.207470E-04  0.187E-02    0.04       1.0  T
  10   -116.6048363 -0.382471E-04  0.961E-03    0.03       1.3  T
  11   -116.6048415 -0.527730E-05  0.628E-03    0.03       1.9  T
  12   -116.6048425 -0.984687E-06  0.560E-03    0.03       2.2  T
  13   -116.6048453 -0.279727E-05  0.358E-03    0.03       3.4  T
  14   -116.6048461 -0.789756E-06  0.273E-03    0.03       4.4  T
  15   -116.6048467 -0.551086E-06  0.199E-03    0.03       6.1  T
  16   -116.6048471 -0.384432E-06  0.121E-03    0.03      10.0  T
  17   -116.6048472 -0.175492E-06  0.564E-04    0.03      21.3  T
  18   -116.6048473 -0.484085E-07  0.107E-04    0.03     112.4  T
     SCC iter.                  ...        0 min,  0.102 sec
     gradient                   ...        0 min,  0.013 sec
 * total energy  :  -114.8429228 Eh     change       -0.2178637E-01 Eh
   gradient norm :     0.0278696 Eh/α   predicted    -0.2193340E-01 (   0.67%)
   displ. norm   :     0.3751229 α      lambda       -0.5735998E-02
   maximum displ.:     0.1920798 α      in ANC's #14, #31, #10, ...

........................................................................
.............................. CYCLE    4 ..............................
........................................................................

 iter      E             dE          RMSdq      gap      omega  full diag
   1   -116.6187626 -0.116619E+03  0.173E-01    0.03       0.0  T
   2   -116.5363752  0.823874E-01  0.733E-01    0.34       1.0  T
   3   -116.6186454 -0.822702E-01  0.142E-01    0.03       1.0  T
   4   -116.6107786  0.786681E-02  0.256E-01    0.07       1.0  T
   5   -116.6209696 -0.101910E-01  0.324E-02    0.03       1.0  T
   6   -116.6210075 -0.378569E-04  0.227E-02    0.03       1.0  T
   7   -116.6210419 -0.344225E-04  0.170E-02    0.04       1.0  T
   8   -116.6210817 -0.397804E-04  0.327E-03    0.04       3.7  T
   9   -116.6210662  0.155159E-04  0.102E-02    0.03       1.2  T
  10   -116.6210815 -0.152961E-04  0.232E-03    0.04       5.2  T
  11   -116.6210815 -0.508182E-07  0.228E-03    0.04       5.3  T
  12   -116.6210821 -0.590022E-06  0.114E-03    0.04      10.6  T
  13   -116.6210819  0.240830E-06  0.166E-03    0.04       7.2  T
  14   -116.6210823 -0.401816E-06  0.438E-04    0.04      27.5  T
  15   -116.6210823 -0.235688E-07  0.200E-04    0.04      60.3  T
     SCC iter.                  ...        0 min,  0.083 sec
     gradient                   ...        0 min,  0.012 sec
 * total energy  :  -114.8469904 Eh     change       -0.4067593E-02 Eh
   gradient norm :     0.0175847 Eh/α   predicted    -0.3271568E-02 ( -19.57%)
   displ. norm   :     0.4593830 α      lambda       -0.3463520E-02
   maximum displ.:     0.2296918 α      in ANC's #14, #10, #22, ...

........................................................................
.............................. CYCLE    5 ..............................
........................................................................

 iter      E             dE          RMSdq      gap      omega  full diag
   1   -116.6328735 -0.116633E+03  0.172E-01    0.03       0.0  T
   2   -116.5522238  0.806497E-01  0.724E-01    0.30       1.0  T
   3   -116.6322583 -0.800345E-01  0.146E-01    0.03       1.0  T
   4   -116.6303041  0.195417E-02  0.164E-01    0.05       1.0  T
   5   -116.6286153  0.168877E-02  0.198E-01    0.02       1.0  T
   6   -116.6346642 -0.604888E-02  0.135E-02    0.04       1.0  T
   7   -116.6346639  0.340909E-06  0.983E-03    0.04       1.2  T
   8   -116.6346377  0.261786E-04  0.151E-02    0.04       1.0  T
   9   -116.6346217  0.159880E-04  0.182E-02    0.03       1.0  T
  10   -116.6346619 -0.401763E-04  0.862E-03    0.03       1.4  T
  11   -116.6346732 -0.113437E-04  0.134E-03    0.04       9.0  T
  12   -116.6346733 -0.117511E-06  0.863E-04    0.04      13.9  T
  13   -116.6346729  0.435907E-06  0.187E-03    0.04       6.4  T
  14   -116.6346734 -0.442874E-06  0.799E-04    0.04      15.1  T
     SCC iter.                  ...        0 min,  0.074 sec
     gradient                   ...        0 min,  0.011 sec
 * total energy  :  -114.8490789 Eh     change       -0.2088506E-02 Eh
   gradient norm :     0.0130839 Eh/α   predicted    -0.2097244E-02 (   0.42%)
   displ. norm   :     0.3703707 α      lambda       -0.1452730E-02
   maximum displ.:     0.1670072 α      in ANC's #10, #14, #3, ...

........................................................................
.............................. CYCLE    6 ..............................
........................................................................

 iter      E             dE          RMSdq      gap      omega  full diag
   1   -116.6379727 -0.116638E+03  0.160E-01    0.03       0.0  T
   2   -116.5498268  0.881458E-01  0.763E-01    0.37       1.0  T
   3   -116.6380464 -0.882196E-01  0.143E-01    0.05       1.0  T
   4   -116.6369296  0.111686E-02  0.162E-01    0.02       1.0  T
   5   -116.6402139 -0.328431E-02  0.579E-02    0.04       1.0  T
   6   -116.6407160 -0.502112E-03  0.601E-03    0.04       2.0  T
   7   -116.6407112  0.473557E-05  0.717E-03    0.04       1.7  T
   8   -116.6407129 -0.162715E-05  0.570E-03    0.04       2.1  T
   9   -116.6407171 -0.427050E-05  0.969E-04    0.04      12.4  T
  10   -116.6407167  0.394684E-06  0.173E-03    0.04       7.0  T
  11   -116.6407170 -0.295669E-06  0.957E-04    0.04      12.6  T
  12   -116.6407172 -0.138549E-06  0.184E-04    0.04      65.4  T
     SCC iter.                  ...        0 min,  0.053 sec
     gradient                   ...        0 min,  0.011 sec
 * total energy  :  -114.8500438 Eh     change       -0.9648984E-03 Eh
   gradient norm :     0.0081172 Eh/α   predicted    -0.8260132E-03 ( -14.39%)
   displ. norm   :     0.4184249 α      lambda       -0.1039436E-02
   maximum displ.:     0.2046551 α      in ANC's #10, #3, #12, ...

........................................................................
.............................. CYCLE    7 ..............................
........................................................................

 iter      E             dE          RMSdq      gap      omega  full diag
   1   -116.6400972 -0.116640E+03  0.119E-01    0.03       0.0  T
   2   -116.5702282  0.698690E-01  0.667E-01    0.21       1.0  T
   3   -116.6394591 -0.692309E-01  0.108E-01    0.03       1.0  T
   4   -116.6377542  0.170484E-02  0.138E-01    0.05       1.0  T
   5   -116.6407660 -0.301176E-02  0.253E-02    0.03       1.0  T
   6   -116.6408450 -0.790003E-04  0.681E-03    0.04       1.8  T
   7   -116.6408459 -0.937249E-06  0.361E-03    0.04       3.3  T
   8   -116.6408297  0.162126E-04  0.104E-02    0.04       1.2  T
   9   -116.6408462 -0.164926E-04  0.174E-03    0.04       6.9  T
  10   -116.6408462 -0.271463E-07  0.153E-03    0.04       7.8  T
  11   -116.6408465 -0.247098E-06  0.842E-04    0.04      14.3  T
  12   -116.6408465 -0.347535E-08  0.798E-04    0.04      15.1  T
     SCC iter.                  ...        0 min,  0.053 sec
     gradient                   ...        0 min,  0.011 sec
 * total energy  :  -114.8508983 Eh     change       -0.8545551E-03 Eh
   gradient norm :     0.0070271 Eh/α   predicted    -0.6107149E-03 ( -28.53%)
   displ. norm   :     0.5835476 α      lambda       -0.1293581E-02
   maximum displ.:     0.2863311 α      in ANC's #10, #3, #12, ...

........................................................................
.............................. CYCLE    8 ..............................
........................................................................

 iter      E             dE          RMSdq      gap      omega  full diag
   1   -116.6383912 -0.116638E+03  0.147E-01    0.04       0.0  T
   2   -116.5716560  0.667352E-01  0.655E-01    0.19       1.0  T
   3   -116.6326855 -0.610295E-01  0.211E-01    0.03       1.0  T
   4   -116.6284496  0.423591E-02  0.263E-01    0.07       1.0  T
   5   -116.6370199 -0.857026E-02  0.112E-01    0.05       1.0  T
   6   -116.6389232 -0.190329E-02  0.255E-02    0.04       1.0  T
   7   -116.6389968 -0.735758E-04  0.110E-02    0.04       1.1  T
   8   -116.6389783  0.184433E-04  0.148E-02    0.04       1.0  T
   9   -116.6390119 -0.336086E-04  0.172E-03    0.04       7.0  T
  10   -116.6390116  0.324636E-06  0.218E-03    0.04       5.5  T
  11   -116.6390122 -0.571651E-06  0.947E-04    0.04      12.7  T
  12   -116.6390115  0.657540E-06  0.221E-03    0.04       5.5  T
  13   -116.6390120 -0.505107E-06  0.130E-03    0.04       9.2  T
  14   -116.6390122 -0.222745E-06  0.495E-04    0.04      24.3  T
     SCC iter.                  ...        0 min,  0.066 sec
     gradient                   ...        0 min,  0.011 sec
 * total energy  :  -114.8519440 Eh     change       -0.1045708E-02 Eh
   gradient norm :     0.0083689 Eh/α   predicted    -0.8670470E-03 ( -17.09%)
   displ. norm   :     0.6278749 α      lambda       -0.1136694E-02
   maximum displ.:     0.2972475 α      in ANC's #10, #3, #12, ...

........................................................................
.............................. CYCLE    9 ..............................
........................................................................

 iter      E             dE          RMSdq      gap      omega  full diag
   1   -116.6366818 -0.116637E+03  0.155E-01    0.05       0.0  T
   2   -116.6018984  0.347834E-01  0.475E-01    0.11       1.0  T
   3   -116.6018854  0.130004E-04  0.473E-01    0.05       1.0  T
   4   -116.6334146 -0.315292E-01  0.171E-01    0.07       1.0  T
   5   -116.6343738 -0.959221E-03  0.126E-01    0.06       1.0  T
   6   -116.6366272 -0.225340E-02  0.425E-02    0.05       1.0  T
   7   -116.6368688 -0.241537E-03  0.117E-02    0.05       1.0  T
   8   -116.6368696 -0.865168E-06  0.532E-03    0.05       2.3  T
   9   -116.6368726 -0.291633E-05  0.264E-03    0.05       4.6  T
  10   -116.6368734 -0.848482E-06  0.132E-03    0.05       9.1  T
  11   -116.6368736 -0.165067E-06  0.563E-04    0.05      21.4  T
  12   -116.6368729  0.672020E-06  0.208E-03    0.05       5.8  T
  13   -116.6368734 -0.475067E-06  0.117E-03    0.05      10.3  T
  14   -116.6368736 -0.206688E-06  0.163E-04    0.05      73.9  T
     SCC iter.                  ...        0 min,  0.061 sec
     gradient                   ...        0 min,  0.011 sec
 * total energy  :  -114.8529026 Eh     change       -0.9585643E-03 Eh
   gradient norm :     0.0094961 Eh/α   predicted    -0.7924096E-03 ( -17.33%)
   displ. norm   :     0.6772654 α      lambda       -0.1210328E-02
   maximum displ.:     0.3177342 α      in ANC's #12, #3, #10, ...

........................................................................
.............................. CYCLE   10 ..............................
........................................................................

 iter      E             dE          RMSdq      gap      omega  full diag
   1   -116.6371112 -0.116637E+03  0.178E-01    0.07       0.0  T
   2   -116.5877539  0.493573E-01  0.569E-01    0.15       1.0  T
   3   -116.5977711 -0.100172E-01  0.503E-01    0.07       1.0  T
   4   -116.6294089 -0.316378E-01  0.245E-01    0.09       1.0  T
   5   -116.6322810 -0.287217E-02  0.180E-01    0.08       1.0  T
   6   -116.6369002 -0.461914E-02  0.641E-02    0.07       1.0  T
   7   -116.6374643 -0.564058E-03  0.192E-02    0.07       1.0  T
   8   -116.6374119  0.523149E-04  0.204E-02    0.07       1.0  T
   9   -116.6374732 -0.612940E-04  0.549E-03    0.07       2.2  T
  10   -116.6374761 -0.284452E-05  0.352E-03    0.07       3.4  T
  11   -116.6374778 -0.172973E-05  0.754E-04    0.07      16.0  T
  12   -116.6374760  0.180320E-05  0.339E-03    0.07       3.6  T
  13   -116.6374771 -0.112698E-05  0.210E-03    0.07       5.7  T
  14   -116.6374778 -0.677819E-06  0.342E-04    0.07      35.2  T
  15   -116.6374778 -0.103172E-07  0.134E-04    0.07      90.1  T
     SCC iter.                  ...        0 min,  0.104 sec
     gradient                   ...        0 min,  0.017 sec
 * total energy  :  -114.8539657 Eh     change       -0.1063082E-02 Eh
   gradient norm :     0.0099504 Eh/α   predicted    -0.8827629E-03 ( -16.96%)
   displ. norm   :     0.7091764 α      lambda       -0.1413992E-02
   maximum displ.:     0.3531447 α      in ANC's #12, #3, #7, ...

........................................................................
.............................. CYCLE   11 ..............................
........................................................................

 iter      E             dE          RMSdq      gap      omega  full diag
   1   -116.6407387 -0.116641E+03  0.198E-01    0.09       0.0  T
   2   -116.5826750  0.580637E-01  0.624E-01    0.20       1.0  T
   3   -116.6011492 -0.184742E-01  0.505E-01    0.10       1.0  T
   4   -116.6265805 -0.254313E-01  0.319E-01    0.13       1.0  T
   5   -116.6324194 -0.583887E-02  0.234E-01    0.11       1.0  T
   6   -116.6405262 -0.810685E-02  0.764E-02    0.10       1.0  T
   7   -116.6413071 -0.780903E-03  0.284E-02    0.09       1.0  T
   8   -116.6411263  0.180846E-03  0.379E-02    0.09       1.0  T
   9   -116.6413442 -0.217906E-03  0.794E-03    0.09       1.5  T
  10   -116.6413464 -0.221268E-05  0.694E-03    0.09       1.7  T
  11   -116.6413536 -0.717581E-05  0.123E-03    0.09       9.8  T
  12   -116.6413518  0.177001E-05  0.344E-03    0.09       3.5  T
  13   -116.6413531 -0.132104E-05  0.188E-03    0.09       6.4  T
  14   -116.6413536 -0.434717E-06  0.887E-04    0.09      13.6  T
  15   -116.6413537 -0.104526E-06  0.260E-04    0.09      46.2  T
     SCC iter.                  ...        0 min,  0.086 sec
     gradient                   ...        0 min,  0.011 sec
 * total energy  :  -114.8552078 Eh     change       -0.1242098E-02 Eh
   gradient norm :     0.0088331 Eh/α   predicted    -0.1062568E-02 ( -14.45%)
   displ. norm   :     0.7385852 α      lambda       -0.1509727E-02
   maximum displ.:     0.3730786 α      in ANC's #12, #3, #7, ...

........................................................................
.............................. CYCLE   12 ..............................
........................................................................

 iter      E             dE          RMSdq      gap      omega  full diag
   1   -116.6440625 -0.116644E+03  0.222E-01    0.12       0.0  T
   2   -116.5612751  0.827875E-01  0.762E-01    0.33       1.0  T
   3   -116.6395457 -0.782706E-01  0.227E-01    0.11       1.0  T
   4   -116.6201253  0.194203E-01  0.403E-01    0.17       1.0  T
   5   -116.6437660 -0.236406E-01  0.117E-01    0.12       1.0  T
   6   -116.6455783 -0.181236E-02  0.582E-02    0.12       1.0  T
   7   -116.6459264 -0.348055E-03  0.326E-02    0.12       1.0  T
   8   -116.6459530 -0.265868E-04  0.260E-02    0.12       1.0  T
   9   -116.6460475 -0.945788E-04  0.638E-03    0.12       1.9  T
  10   -116.6460485 -0.950431E-06  0.562E-03    0.12       2.1  T
  11   -116.6460521 -0.356848E-05  0.281E-03    0.12       4.3  T
  12   -116.6460531 -0.106054E-05  0.971E-04    0.12      12.4  T
  13   -116.6460530  0.916737E-07  0.115E-03    0.12      10.4  T
  14   -116.6460530  0.444205E-07  0.123E-03    0.12       9.7  T
  15   -116.6460532 -0.226194E-06  0.285E-04    0.12      42.2  T
  16   -116.6460532 -0.100657E-07  0.126E-04    0.12      95.9  T
     SCC iter.                  ...        0 min,  0.070 sec
     gradient                   ...        0 min,  0.011 sec
 * total energy  :  -114.8565145 Eh     change       -0.1306699E-02 Eh
   gradient norm :     0.0093296 Eh/α   predicted    -0.1166654E-02 ( -10.72%)
   displ. norm   :     0.7203199 α      lambda       -0.1438961E-02
   maximum displ.:     0.3592801 α      in ANC's #12, #3, #7, ...

........................................................................
.............................. CYCLE   13 ..............................
........................................................................

 iter      E             dE          RMSdq      gap      omega  full diag
   1   -116.6481459 -0.116648E+03  0.217E-01    0.14       0.0  T
   2   -116.5642536  0.838923E-01  0.770E-01    0.36       1.0  T
   3   -116.6489485 -0.846949E-01  0.144E-01    0.14       1.0  T
   4   -116.6466885  0.225994E-02  0.152E-01    0.15       1.0  T
   5   -116.6431046  0.358389E-02  0.215E-01    0.13       1.0  T
   6   -116.6504328 -0.732819E-02  0.204E-02    0.14       1.0  T
   7   -116.6504209  0.119441E-04  0.162E-02    0.14       1.0  T
   8   -116.6503715  0.494224E-04  0.217E-02    0.14       1.0  T
   9   -116.6504362 -0.647516E-04  0.684E-03    0.14       1.8  T
  10   -116.6504416 -0.543209E-05  0.308E-03    0.14       3.9  T
  11   -116.6504412  0.418160E-06  0.328E-03    0.14       3.7  T
  12   -116.6504425 -0.124701E-05  0.167E-03    0.14       7.2  T
  13   -116.6504428 -0.337507E-06  0.812E-04    0.14      14.8  T
  14   -116.6504429 -0.384353E-07  0.623E-04    0.14      19.3  T
     SCC iter.                  ...        0 min,  0.062 sec
     gradient                   ...        0 min,  0.011 sec
 * total energy  :  -114.8577135 Eh     change       -0.1199070E-02 Eh
   gradient norm :     0.0092492 Eh/α   predicted    -0.1092813E-02 (  -8.86%)
   displ. norm   :     0.7642246 α      lambda       -0.1287870E-02
   maximum displ.:     0.3783827 α      in ANC's #12, #3, #7, ...

........................................................................
.............................. CYCLE   14 ..............................
........................................................................

 iter      E             dE          RMSdq      gap      omega  full diag
   1   -116.6417118 -0.116642E+03  0.217E-01    0.16       0.0  T
   2   -116.5555117  0.862002E-01  0.780E-01    0.39       1.0  T
   3   -116.6442242 -0.887126E-01  0.112E-01    0.16       1.0  T
   4   -116.6407841  0.344011E-02  0.159E-01    0.15       1.0  T
   5   -116.6429030 -0.211892E-02  0.962E-02    0.16       1.0  T
   6   -116.6442422 -0.133919E-02  0.262E-02    0.16       1.0  T
   7   -116.6443024 -0.601714E-04  0.150E-02    0.16       1.0  T
   8   -116.6443226 -0.201717E-04  0.669E-03    0.16       1.8  T
   9   -116.6443264 -0.381996E-05  0.354E-03    0.16       3.4  T
  10   -116.6443276 -0.119589E-05  0.188E-03    0.16       6.4  T
  11   -116.6443280 -0.422128E-06  0.475E-04    0.16      25.3  T
  12   -116.6443280 -0.521337E-08  0.273E-04    0.16      44.1  T
     SCC iter.                  ...        0 min,  0.054 sec
     gradient                   ...        0 min,  0.012 sec
 * total energy  :  -114.8586779 Eh     change       -0.9643712E-03 Eh
   gradient norm :     0.0138259 Eh/α   predicted    -0.1020019E-02 (   5.77%)
   displ. norm   :     0.6215110 α      lambda       -0.1531781E-02
   maximum displ.:     0.2671400 α      in ANC's #12, #13, #7, ...

........................................................................
.............................. CYCLE   15 ..............................
........................................................................

 iter      E             dE          RMSdq      gap      omega  full diag
   1   -116.6554848 -0.116655E+03  0.197E-01    0.17       0.0  T
   2   -116.5710689  0.844159E-01  0.764E-01    0.37       1.0  T
   3   -116.6576544 -0.865855E-01  0.980E-02    0.17       1.0  T
   4   -116.6560754  0.157901E-02  0.111E-01    0.16       1.0  T
   5   -116.6574844 -0.140906E-02  0.518E-02    0.17       1.0  T
   6   -116.6578481 -0.363720E-03  0.144E-02    0.16       1.0  T
   7   -116.6578461  0.202833E-05  0.128E-02    0.17       1.0  T
   8   -116.6578658 -0.196956E-04  0.356E-03    0.16       3.4  T
   9   -116.6578643  0.148266E-05  0.389E-03    0.16       3.1  T
  10   -116.6578663 -0.194905E-05  0.133E-03    0.17       9.0  T
  11   -116.6578664 -0.140309E-06  0.538E-04    0.17      22.4  T
  12   -116.6578664 -0.193387E-07  0.258E-04    0.17      46.7  T
     SCC iter.                  ...        0 min,  0.057 sec
     gradient                   ...        0 min,  0.011 sec
 * total energy  :  -114.8594409 Eh     change       -0.7630023E-03 Eh
   gradient norm :     0.0137076 Eh/α   predicted    -0.1061736E-02 (  39.15%)
   displ. norm   :     0.6025954 α      lambda       -0.9898341E-03
   maximum displ.:     0.3007551 α      in ANC's #12, #7, #3, ...

........................................................................
.............................. CYCLE   16 ..............................
........................................................................

 iter      E             dE          RMSdq      gap      omega  full diag
   1   -116.6447041 -0.116645E+03  0.148E-01    0.17       0.0  T
   2   -116.6108454  0.338588E-01  0.476E-01    0.23       1.0  T
   3   -116.6411618 -0.303164E-01  0.175E-01    0.17       1.0  T
   4   -116.6433688 -0.220705E-02  0.103E-01    0.18       1.0  T
   5   -116.6450583 -0.168951E-02  0.190E-02    0.17       1.0  T
   6   -116.6450870 -0.286719E-04  0.122E-02    0.17       1.0  T
   7   -116.6451002 -0.131883E-04  0.427E-03    0.17       2.8  T
   8   -116.6451002 -0.112078E-07  0.295E-03    0.17       4.1  T
   9   -116.6451001  0.117038E-06  0.281E-03    0.17       4.3  T
  10   -116.6451010 -0.921502E-06  0.139E-03    0.17       8.7  T
  11   -116.6451012 -0.238079E-06  0.454E-04    0.17      26.5  T
  12   -116.6451013 -0.199248E-07  0.190E-04    0.17      63.3  T
     SCC iter.                  ...        0 min,  0.054 sec
     gradient                   ...        0 min,  0.011 sec
 * total energy  :  -114.8600876 Eh     change       -0.6466974E-03 Eh
   gradient norm :     0.0118021 Eh/α   predicted    -0.6746334E-03 (   4.32%)
   displ. norm   :     0.3782833 α      lambda       -0.8188842E-03
   maximum displ.:     0.1830254 α      in ANC's #12, #7, #3, ...

........................................................................
.............................. CYCLE   17 ..............................
........................................................................

 iter      E             dE          RMSdq      gap      omega  full diag
   1   -116.6459403 -0.116646E+03  0.867E-02    0.17       0.0  T
   2   -116.6398265  0.611384E-02  0.200E-01    0.18       1.0  T
   3   -116.6395374  0.289126E-03  0.207E-01    0.17       1.0  T
   4   -116.6459319 -0.639451E-02  0.309E-02    0.17       1.0  T
   5   -116.6459979 -0.660095E-04  0.682E-03    0.17       1.8  T
   6   -116.6459969  0.101446E-05  0.633E-03    0.17       1.9  T
   7   -116.6459983 -0.145887E-05  0.424E-03    0.17       2.8  T
   8   -116.6460004 -0.207628E-05  0.968E-04    0.17      12.4  T
   9   -116.6460004 -0.860332E-08  0.653E-04    0.17      18.4  T
  10   -116.6460004 -0.873808E-08  0.503E-04    0.17      23.9  T
     SCC iter.                  ...        0 min,  0.045 sec
     gradient                   ...        0 min,  0.011 sec
 * total energy  :  -114.8605406 Eh     change       -0.4530319E-03 Eh
   gradient norm :     0.0121985 Eh/α   predicted    -0.4680352E-03 (   3.31%)
   displ. norm   :     0.3814469 α      lambda       -0.6948451E-03
   maximum displ.:     0.1914833 α      in ANC's #7, #12, #4, ...

........................................................................
.............................. CYCLE   18 ..............................
........................................................................

 iter      E             dE          RMSdq      gap      omega  full diag
   1   -116.6489190 -0.116649E+03  0.974E-02    0.17       0.0  T
   2   -116.6369831  0.119359E-01  0.277E-01    0.19       1.0  T
   3   -116.6442499 -0.726685E-02  0.182E-01    0.17       1.0  T
   4   -116.6490048 -0.475484E-02  0.209E-02    0.17       1.0  T
   5   -116.6490242 -0.194925E-04  0.641E-03    0.17       1.9  T
   6   -116.6490230  0.122476E-05  0.655E-03    0.17       1.8  T
   7   -116.6490236 -0.612854E-06  0.496E-03    0.17       2.4  T
   8   -116.6490269 -0.325617E-05  0.134E-03    0.17       9.0  T
   9   -116.6490270 -0.150516E-06  0.497E-04    0.17      24.2  T
  10   -116.6490270  0.322382E-08  0.449E-04    0.17      26.8  T
     SCC iter.                  ...        0 min,  0.048 sec
     gradient                   ...        0 min,  0.011 sec
 * total energy  :  -114.8610572 Eh     change       -0.5165446E-03 Eh
   gradient norm :     0.0097762 Eh/α   predicted    -0.3979746E-03 ( -22.95%)
   displ. norm   :     0.4976446 α      lambda       -0.7148486E-03
   maximum displ.:     0.2620616 α      in ANC's #7, #12, #4, ...

........................................................................
.............................. CYCLE   19 ..............................
........................................................................

 iter      E             dE          RMSdq      gap      omega  full diag
   1   -116.6525464 -0.116653E+03  0.140E-01    0.17       0.0  T
   2   -116.6053237  0.472227E-01  0.553E-01    0.25       1.0  T
   3   -116.6506789 -0.453552E-01  0.147E-01    0.17       1.0  T
   4   -116.6531531 -0.247418E-02  0.194E-02    0.17       1.0  T
   5   -116.6531771 -0.239912E-04  0.880E-03    0.17       1.4  T
   6   -116.6531644  0.126299E-04  0.109E-02    0.17       1.1  T
   7   -116.6531804 -0.159831E-04  0.391E-03    0.17       3.1  T
   8   -116.6531809 -0.428886E-06  0.127E-03    0.17       9.5  T
   9   -116.6531809 -0.421413E-07  0.618E-04    0.17      19.5  T
  10   -116.6531808  0.100335E-06  0.911E-04    0.17      13.2  T
     SCC iter.                  ...        0 min,  0.045 sec
     gradient                   ...        0 min,  0.011 sec
 * total energy  :  -114.8615895 Eh     change       -0.5323352E-03 Eh
   gradient norm :     0.0097824 Eh/α   predicted    -0.4459418E-03 ( -16.23%)
   displ. norm   :     0.4863725 α      lambda       -0.6590591E-03
   maximum displ.:     0.2453915 α      in ANC's #7, #4, #12, ...

........................................................................
.............................. CYCLE   20 ..............................
........................................................................

 iter      E             dE          RMSdq      gap      omega  full diag
   1   -116.6571596 -0.116657E+03  0.130E-01    0.16       0.0  T
   2   -116.6342762  0.228834E-01  0.383E-01    0.20       1.0  T
   3   -116.6505411 -0.162650E-01  0.220E-01    0.17       1.0  T
   4   -116.6573038 -0.676269E-02  0.299E-02    0.17       1.0  T
   5   -116.6573738 -0.699965E-04  0.982E-03    0.17       1.2  T
   6   -116.6573748 -0.976853E-06  0.807E-03    0.17       1.5  T
   7   -116.6573787 -0.387968E-05  0.420E-03    0.17       2.9  T
   8   -116.6573801 -0.144260E-05  0.193E-03    0.17       6.2  T
   9   -116.6573804 -0.270523E-06  0.580E-04    0.17      20.7  T
  10   -116.6573804  0.325062E-08  0.479E-04    0.17      25.2  T
     SCC iter.                  ...        0 min,  0.045 sec
     gradient                   ...        0 min,  0.011 sec
 * total energy  :  -114.8620379 Eh     change       -0.4484201E-03 Eh
   gradient norm :     0.0098716 Eh/α   predicted    -0.4074849E-03 (  -9.13%)
   displ. norm   :     0.5357538 α      lambda       -0.5789656E-03
   maximum displ.:     0.2989470 α      in ANC's #7, #4, #12, ...
 * RMSD in coord.:     1.0309217 α      energy gain  -0.1248885E+00 Eh

generating ANC from exact Hessian ...
Using Lindh-Hessian (1995)
 Shifting diagonal of input Hessian by   9.912368002111619E-003
 Lowest  eigenvalues of input Hessian
    0.000000    0.000000    0.000000    0.000000    0.000000    0.000000
    0.010000    0.010073    0.010350    0.010464    0.010790    0.010931
    0.011031    0.011282    0.011539    0.011821    0.012292    0.012550
 Highest eigenvalues
    2.081701    2.117268    2.173684    2.411099    2.764057    2.842925
 

........................................................................
.............................. CYCLE   21 ..............................
........................................................................

 iter      E             dE          RMSdq      gap      omega  full diag
   1   -116.6538625 -0.116654E+03  0.150E-01    0.16       0.0  T
   2   -116.6031005  0.507621E-01  0.575E-01    0.25       1.0  T
   3   -116.6523406 -0.492401E-01  0.142E-01    0.17       1.0  T
   4   -116.6545180 -0.217746E-02  0.155E-02    0.16       1.0  T
   5   -116.6545297 -0.116246E-04  0.887E-03    0.17       1.4  T
   6   -116.6545237  0.601899E-05  0.886E-03    0.16       1.4  T
   7   -116.6545342 -0.105874E-04  0.312E-03    0.17       3.9  T
   8   -116.6545347 -0.438061E-06  0.103E-03    0.16      11.7  T
   9   -116.6545347 -0.319378E-07  0.535E-04    0.17      22.5  T
  10   -116.6545346  0.983617E-07  0.881E-04    0.16      13.7  T
     SCC iter.                  ...        0 min,  0.053 sec
     gradient                   ...        0 min,  0.012 sec
 * total energy  :  -114.8624121 Eh     change       -0.3741445E-03 Eh
   gradient norm :     0.0103981 Eh/α   predicted     0.0000000E+00 (-100.00%)
   displ. norm   :     0.1243023 α      lambda       -0.3581594E-03
   maximum displ.:     0.0782788 α      in ANC's #7, #8, #3, ...

........................................................................
.............................. CYCLE   22 ..............................
........................................................................

 iter      E             dE          RMSdq      gap      omega  full diag
   1   -116.6581300 -0.116658E+03  0.414E-02    0.17       0.0  T
   2   -116.6543992  0.373082E-02  0.155E-01    0.17       1.0  T
   3   -116.6580263 -0.362713E-02  0.359E-02    0.16       1.0  T
   4   -116.6581359 -0.109544E-03  0.140E-02    0.17       1.0  T
   5   -116.6581582 -0.223814E-04  0.316E-03    0.17       3.8  T
   6   -116.6581591 -0.831745E-06  0.144E-03    0.17       8.3  T
   7   -116.6581593 -0.254354E-06  0.493E-04    0.17      24.4  T
   8   -116.6581593  0.580221E-08  0.381E-04    0.17      31.6  T
     SCC iter.                  ...        0 min,  0.037 sec
     gradient                   ...        0 min,  0.011 sec
 * total energy  :  -114.8627012 Eh     change       -0.2891175E-03 Eh
   gradient norm :     0.0040097 Eh/α   predicted    -0.1818482E-03 ( -37.10%)
   displ. norm   :     0.3328589 α      lambda       -0.5590111E-03
   maximum displ.:     0.2138818 α      in ANC's #7, #8, #3, ...

........................................................................
.............................. CYCLE   23 ..............................
........................................................................

 iter      E             dE          RMSdq      gap      omega  full diag
   1   -116.6612149 -0.116661E+03  0.100E-01    0.17       0.0  T
   2   -116.6589705  0.224437E-02  0.134E-01    0.17       1.0  T
   3   -116.6436394  0.153310E-01  0.330E-01    0.17       1.0  T
   4   -116.6609676 -0.173282E-01  0.461E-02    0.17       1.0  T
   5   -116.6612272 -0.259603E-03  0.102E-02    0.17       1.2  T
   6   -116.6612405 -0.133153E-04  0.346E-03    0.17       3.5  T
   7   -116.6612414 -0.820848E-06  0.174E-03    0.17       6.9  T
   8   -116.6612415 -0.153947E-06  0.972E-04    0.17      12.4  T
   9   -116.6612415 -0.232788E-07  0.571E-04    0.17      21.1  T
     SCC iter.                  ...        0 min,  0.041 sec
     gradient                   ...        0 min,  0.011 sec
 * total energy  :  -114.8631361 Eh     change       -0.4349334E-03 Eh
   gradient norm :     0.0061356 Eh/α   predicted    -0.3104901E-03 ( -28.61%)
   displ. norm   :     0.4439200 α      lambda       -0.5389165E-03
   maximum displ.:     0.2932338 α      in ANC's #7, #8, #3, ...

........................................................................
.............................. CYCLE   24 ..............................
........................................................................

 iter      E             dE          RMSdq      gap      omega  full diag
   1   -116.6601941 -0.116660E+03  0.132E-01    0.17       0.0  T
   2   -116.6601099  0.841336E-04  0.807E-02    0.17       1.0  T
   3   -116.6256246  0.344853E-01  0.467E-01    0.22       1.0  T
   4   -116.6601110 -0.344863E-01  0.273E-02    0.17       1.0  T
   5   -116.6601876 -0.766293E-04  0.108E-02    0.17       1.1  T
   6   -116.6602035 -0.159475E-04  0.260E-03    0.17       4.6  T
   7   -116.6602037 -0.187067E-06  0.150E-03    0.17       8.0  T
   8   -116.6602032  0.484430E-06  0.186E-03    0.17       6.5  T
   9   -116.6602037 -0.480861E-06  0.600E-04    0.17      20.1  T
  10   -116.6602038 -0.266939E-07  0.332E-04    0.17      36.3  T
     SCC iter.                  ...        0 min,  0.051 sec
     gradient                   ...        0 min,  0.012 sec
 * total energy  :  -114.8636104 Eh     change       -0.4742945E-03 Eh
   gradient norm :     0.0093492 Eh/α   predicted    -0.3226797E-03 ( -31.97%)
   displ. norm   :     0.5148706 α      lambda       -0.6092365E-03
   maximum displ.:     0.3426552 α      in ANC's #7, #8, #3, ...

........................................................................
.............................. CYCLE   25 ..............................
........................................................................

 iter      E             dE          RMSdq      gap      omega  full diag
   1   -116.6566737 -0.116657E+03  0.150E-01    0.17       0.0  T
   2   -116.6562604  0.413261E-03  0.101E-01    0.17       1.0  T
   3   -116.5990690  0.571914E-01  0.609E-01    0.26       1.0  T
   4   -116.6559360 -0.568670E-01  0.699E-02    0.17       1.0  T
   5   -116.6566626 -0.726557E-03  0.126E-02    0.17       1.0  T
   6   -116.6566811 -0.185109E-04  0.446E-03    0.17       2.7  T
   7   -116.6566817 -0.576566E-06  0.333E-03    0.17       3.6  T
   8   -116.6566823 -0.637322E-06  0.236E-03    0.17       5.1  T
   9   -116.6566830 -0.665203E-06  0.862E-04    0.17      14.0  T
  10   -116.6566830 -0.429446E-08  0.677E-04    0.17      17.8  T
     SCC iter.                  ...        0 min,  0.046 sec
     gradient                   ...        0 min,  0.013 sec
 * total energy  :  -114.8641192 Eh     change       -0.5087491E-03 Eh
   gradient norm :     0.0090088 Eh/α   predicted    -0.3853735E-03 ( -24.25%)
   displ. norm   :     0.4453965 α      lambda       -0.5089969E-03
   maximum displ.:     0.3048452 α      in ANC's #7, #8, #3, ...

........................................................................
.............................. CYCLE   26 ..............................
........................................................................

 iter      E             dE          RMSdq      gap      omega  full diag
   1   -116.6545051 -0.116655E+03  0.126E-01    0.17       0.0  T
   2   -116.6533025  0.120256E-02  0.114E-01    0.17       1.0  T
   3   -116.6148584  0.384441E-01  0.505E-01    0.23       1.0  T
   4   -116.6540403 -0.391818E-01  0.569E-02    0.17       1.0  T
   5   -116.6544920 -0.451722E-03  0.137E-02    0.17       1.0  T
   6   -116.6545175 -0.255339E-04  0.361E-03    0.17       3.3  T
   7   -116.6545174  0.118858E-06  0.296E-03    0.17       4.1  T
   8   -116.6545174  0.346706E-07  0.262E-03    0.17       4.6  T
   9   -116.6545181 -0.750871E-06  0.111E-03    0.17      10.9  T
  10   -116.6545182 -0.120390E-06  0.551E-04    0.17      21.8  T
  11   -116.6545183 -0.261314E-07  0.213E-04    0.17      56.5  T
     SCC iter.                  ...        0 min,  0.057 sec
     gradient                   ...        0 min,  0.013 sec
 * total energy  :  -114.8645231 Eh     change       -0.4039259E-03 Eh
   gradient norm :     0.0092559 Eh/α   predicted    -0.3050013E-03 ( -24.49%)
   displ. norm   :     0.4343642 α      lambda       -0.5509430E-03
   maximum displ.:     0.3139875 α      in ANC's #7, #3, #8, ...

........................................................................
.............................. CYCLE   27 ..............................
........................................................................

 iter      E             dE          RMSdq      gap      omega  full diag
   1   -116.6551295 -0.116655E+03  0.119E-01    0.16       0.0  T
   2   -116.6544727  0.656830E-03  0.947E-02    0.17       1.0  T
   3   -116.5915150  0.629577E-01  0.625E-01    0.20       1.0  T
   4   -116.6548610 -0.633460E-01  0.417E-02    0.16       1.0  T
   5   -116.6551420 -0.280954E-03  0.756E-03    0.17       1.6  T
   6   -116.6551473 -0.531369E-05  0.302E-03    0.16       4.0  T
   7   -116.6551473  0.433911E-08  0.226E-03    0.16       5.3  T
   8   -116.6551469  0.419964E-06  0.207E-03    0.16       5.8  T
   9   -116.6551473 -0.398857E-06  0.990E-04    0.16      12.2  T
  10   -116.6551474 -0.133331E-06  0.319E-04    0.16      37.8  T
     SCC iter.                  ...        0 min,  0.049 sec
     gradient                   ...        0 min,  0.013 sec
 * total energy  :  -114.8649602 Eh     change       -0.4370599E-03 Eh
   gradient norm :     0.0101332 Eh/α   predicted    -0.3274460E-03 ( -25.08%)
   displ. norm   :     0.4538770 α      lambda       -0.6582931E-03
   maximum displ.:     0.3418946 α      in ANC's #7, #3, #6, ...

........................................................................
.............................. CYCLE   28 ..............................
........................................................................

 iter      E             dE          RMSdq      gap      omega  full diag
   1   -116.6587246 -0.116659E+03  0.121E-01    0.16       0.0  T
   2   -116.6552379  0.348676E-02  0.163E-01    0.17       1.0  T
   3   -116.6316365  0.236014E-01  0.414E-01    0.17       1.0  T
   4   -116.6584723 -0.268358E-01  0.440E-02    0.16       1.0  T
   5   -116.6587591 -0.286784E-03  0.766E-03    0.16       1.6  T
   6   -116.6587616 -0.253167E-05  0.424E-03    0.16       2.8  T
   7   -116.6587623 -0.722519E-06  0.310E-03    0.16       3.9  T
   8   -116.6587607  0.156061E-05  0.372E-03    0.16       3.2  T
   9   -116.6587624 -0.162607E-05  0.160E-03    0.16       7.5  T
  10   -116.6587627 -0.330985E-06  0.426E-04    0.16      28.3  T
  11   -116.6587627 -0.685120E-08  0.275E-04    0.16      43.8  T
     SCC iter.                  ...        0 min,  0.053 sec
     gradient                   ...        0 min,  0.011 sec
 * total energy  :  -114.8654762 Eh     change       -0.5160250E-03 Eh
   gradient norm :     0.0111141 Eh/α   predicted    -0.3969763E-03 ( -23.07%)
   displ. norm   :     0.5797684 α      lambda       -0.6658763E-03
   maximum displ.:     0.4464875 α      in ANC's #7, #3, #6, ...

........................................................................
.............................. CYCLE   29 ..............................
........................................................................

 iter      E             dE          RMSdq      gap      omega  full diag
   1   -116.6576684 -0.116658E+03  0.157E-01    0.16       0.0  T
   2   -116.6300006  0.276678E-01  0.429E-01    0.20       1.0  T
   3   -116.6507223 -0.207217E-01  0.230E-01    0.16       1.0  T
   4   -116.6578460 -0.712371E-02  0.342E-02    0.16       1.0  T
   5   -116.6578857 -0.397064E-04  0.172E-02    0.16       1.0  T
   6   -116.6579218 -0.360984E-04  0.687E-03    0.16       1.8  T
   7   -116.6579259 -0.410827E-05  0.343E-03    0.16       3.5  T
   8   -116.6579232  0.269294E-05  0.483E-03    0.16       2.5  T
   9   -116.6579266 -0.341551E-05  0.112E-03    0.16      10.8  T
  10   -116.6579267 -0.806470E-07  0.519E-04    0.16      23.2  T
  11   -116.6579267 -0.208102E-08  0.315E-04    0.16      38.2  T
     SCC iter.                  ...        0 min,  0.052 sec
     gradient                   ...        0 min,  0.011 sec
 * total energy  :  -114.8660279 Eh     change       -0.5516636E-03 Eh
   gradient norm :     0.0127655 Eh/α   predicted    -0.4448917E-03 ( -19.35%)
   displ. norm   :     0.5887559 α      lambda       -0.1006691E-02
   maximum displ.:     0.4375367 α      in ANC's #7, #3, #6, ...

........................................................................
.............................. CYCLE   30 ..............................
........................................................................

 iter      E             dE          RMSdq      gap      omega  full diag
   1   -116.6654412 -0.116665E+03  0.174E-01    0.16       0.0  T
   2   -116.5982979  0.671432E-01  0.670E-01    0.28       1.0  T
   3   -116.6657616 -0.674637E-01  0.113E-01    0.16       1.0  T
   4   -116.6647597  0.100195E-02  0.100E-01    0.16       1.0  T
   5   -116.6661241 -0.136446E-02  0.478E-02    0.16       1.0  T
   6   -116.6664398 -0.315669E-03  0.163E-02    0.16       1.0  T
   7   -116.6664795 -0.396849E-04  0.467E-03    0.16       2.6  T
   8   -116.6664817 -0.224960E-05  0.189E-03    0.16       6.4  T
   9   -116.6664818 -0.104555E-06  0.114E-03    0.16      10.6  T
  10   -116.6664818  0.587179E-07  0.121E-03    0.16      10.0  T
  11   -116.6664820 -0.196295E-06  0.323E-04    0.16      37.3  T
  12   -116.6664820  0.244127E-07  0.441E-04    0.16      27.3  T
     SCC iter.                  ...        0 min,  0.058 sec
     gradient                   ...        0 min,  0.011 sec
 * total energy  :  -114.8666556 Eh     change       -0.6277688E-03 Eh
   gradient norm :     0.0115829 Eh/α   predicted    -0.6778261E-03 (   7.97%)
   displ. norm   :     0.7698618 α      lambda       -0.9924463E-03
   maximum displ.:     0.6092917 α      in ANC's #7, #3, #6, ...

........................................................................
.............................. CYCLE   31 ..............................
........................................................................

 iter      E             dE          RMSdq      gap      omega  full diag
   1   -116.6540411 -0.116654E+03  0.220E-01    0.16       0.0  T
   2   -116.5854884  0.685527E-01  0.682E-01    0.28       1.0  T
   3   -116.6498152 -0.643268E-01  0.217E-01    0.16       1.0  T
   4   -116.6533643 -0.354904E-02  0.110E-01    0.17       1.0  T
   5   -116.6550500 -0.168578E-02  0.192E-02    0.16       1.0  T
   6   -116.6550688 -0.187304E-04  0.133E-02    0.16       1.0  T
   7   -116.6550791 -0.103471E-04  0.823E-03    0.16       1.5  T
   8   -116.6550824 -0.324223E-05  0.670E-03    0.16       1.8  T
   9   -116.6550887 -0.636084E-05  0.184E-03    0.16       6.6  T
  10   -116.6550884  0.286133E-06  0.200E-03    0.16       6.0  T
  11   -116.6550890 -0.543393E-06  0.502E-04    0.16      24.0  T
  12   -116.6550890 -0.153936E-07  0.202E-04    0.16      59.7  T
     SCC iter.                  ...        0 min,  0.054 sec
     gradient                   ...        0 min,  0.012 sec
 * total energy  :  -114.8673564 Eh     change       -0.7007407E-03 Eh
   gradient norm :     0.0127081 Eh/α   predicted    -0.7903319E-03 (  12.79%)
   displ. norm   :     0.4596024 α      lambda       -0.6312812E-03
   maximum displ.:     0.3521837 α      in ANC's #7, #3, #1, ...

........................................................................
.............................. CYCLE   32 ..............................
........................................................................

 iter      E             dE          RMSdq      gap      omega  full diag
   1   -116.6535309 -0.116654E+03  0.152E-01    0.16       0.0  T
   2   -116.5774010  0.761299E-01  0.713E-01    0.30       1.0  T
   3   -116.6547295 -0.773285E-01  0.754E-02    0.17       1.0  T
   4   -116.6527914  0.193804E-02  0.115E-01    0.16       1.0  T
   5   -116.6546157 -0.182425E-02  0.365E-02    0.17       1.0  T
   6   -116.6548249 -0.209214E-03  0.552E-03    0.16       2.2  T
   7   -116.6548257 -0.834512E-06  0.346E-03    0.16       3.5  T
   8   -116.6548262 -0.508462E-06  0.173E-03    0.16       7.0  T
   9   -116.6548264 -0.207164E-06  0.590E-04    0.16      20.4  T
  10   -116.6548262  0.201122E-06  0.121E-03    0.16       9.9  T
  11   -116.6548264 -0.197025E-06  0.339E-04    0.16      35.5  T
     SCC iter.                  ...        0 min,  0.053 sec
     gradient                   ...        0 min,  0.012 sec
 * total energy  :  -114.8678468 Eh     change       -0.4904236E-03 Eh
   gradient norm :     0.0124836 Eh/α   predicted    -0.3823149E-03 ( -22.04%)
   displ. norm   :     0.4804321 α      lambda       -0.1097486E-02
   maximum displ.:     0.3184048 α      in ANC's #7, #3, #10, ...

........................................................................
.............................. CYCLE   33 ..............................
........................................................................

 iter      E             dE          RMSdq      gap      omega  full diag
   1   -116.6614001 -0.116661E+03  0.198E-01    0.17       0.0  T
   2   -116.5547027  0.106697E+00  0.856E-01    0.41       1.0  T
   3   -116.6637785 -0.109076E+00  0.112E-01    0.17       1.0  T
   4   -116.6582848  0.549367E-02  0.206E-01    0.17       1.0  T
   5   -116.6641091 -0.582432E-02  0.619E-02    0.17       1.0  T
   6   -116.6647000 -0.590830E-03  0.153E-02    0.17       1.0  T
   7   -116.6647201 -0.201689E-04  0.636E-03    0.17       1.9  T
   8   -116.6647082  0.119147E-04  0.908E-03    0.17       1.3  T
   9   -116.6647200 -0.118276E-04  0.238E-03    0.17       5.1  T
  10   -116.6647202 -0.150621E-06  0.188E-03    0.17       6.4  T
  11   -116.6647207 -0.454001E-06  0.465E-04    0.17      25.9  T
  12   -116.6647207 -0.698337E-08  0.189E-04    0.17      63.6  T
     SCC iter.                  ...        0 min,  0.058 sec
     gradient                   ...        0 min,  0.012 sec
 * total energy  :  -114.8684731 Eh     change       -0.6263152E-03 Eh
   gradient norm :     0.0107539 Eh/α   predicted    -0.6754022E-03 (   7.84%)
   displ. norm   :     0.6986018 α      lambda       -0.7700143E-03
   maximum displ.:     0.5417204 α      in ANC's #7, #3, #10, ...

........................................................................
.............................. CYCLE   34 ..............................
........................................................................

 iter      E             dE          RMSdq      gap      omega  full diag
   1   -116.6521877 -0.116652E+03  0.234E-01    0.17       0.0  T
   2   -116.5424158  0.109772E+00  0.869E-01    0.41       1.0  T
   3   -116.6551829 -0.112767E+00  0.116E-01    0.18       1.0  T
   4   -116.6409222  0.142607E-01  0.305E-01    0.17       1.0  T
   5   -116.6547908 -0.138687E-01  0.686E-02    0.17       1.0  T
   6   -116.6555126 -0.721735E-03  0.129E-02    0.17       1.0  T
   7   -116.6555274 -0.148539E-04  0.592E-03    0.17       2.0  T
   8   -116.6555231  0.429944E-05  0.617E-03    0.17       2.0  T
   9   -116.6555282 -0.504585E-05  0.185E-03    0.17       6.5  T
  10   -116.6555262  0.192756E-05  0.378E-03    0.17       3.2  T
  11   -116.6555283 -0.209908E-05  0.998E-04    0.17      12.1  T
  12   -116.6555285 -0.129853E-06  0.299E-04    0.17      40.3  T
  13   -116.6555285 -0.559481E-08  0.128E-04    0.17      93.8  T
     SCC iter.                  ...        0 min,  0.063 sec
     gradient                   ...        0 min,  0.012 sec
 * total energy  :  -114.8690110 Eh     change       -0.5379142E-03 Eh
   gradient norm :     0.0134834 Eh/α   predicted    -0.5729085E-03 (   6.51%)
   displ. norm   :     0.4883712 α      lambda       -0.8955148E-03
   maximum displ.:     0.3289220 α      in ANC's #7, #3, #8, ...

........................................................................
.............................. CYCLE   35 ..............................
........................................................................

 iter      E             dE          RMSdq      gap      omega  full diag
   1   -116.6566715 -0.116657E+03  0.186E-01    0.17       0.0  T
   2   -116.5484236  0.108248E+00  0.857E-01    0.39       1.0  T
   3   -116.6582874 -0.109864E+00  0.116E-01    0.18       1.0  T
   4   -116.6534165  0.487083E-02  0.202E-01    0.17       1.0  T
   5   -116.6595513 -0.613476E-02  0.213E-02    0.17       1.0  T
   6   -116.6596020 -0.506683E-04  0.667E-03    0.17       1.8  T
   7   -116.6596035 -0.155773E-05  0.418E-03    0.17       2.9  T
   8   -116.6596038 -0.303601E-06  0.212E-03    0.17       5.7  T
   9   -116.6596038 -0.109663E-07  0.139E-03    0.17       8.7  T
  10   -116.6596036  0.198269E-06  0.161E-03    0.17       7.5  T
  11   -116.6596040 -0.319853E-06  0.608E-04    0.17      19.8  T
  12   -116.6596040 -0.119281E-07  0.476E-04    0.17      25.3  T
     SCC iter.                  ...        0 min,  0.058 sec
     gradient                   ...        0 min,  0.012 sec
 * total energy  :  -114.8694716 Eh     change       -0.4605737E-03 Eh
   gradient norm :     0.0162250 Eh/α   predicted    -0.5545498E-03 (  20.40%)
   displ. norm   :     0.5303572 α      lambda       -0.1024547E-02
   maximum displ.:     0.3780877 α      in ANC's #7, #3, #1, ...

........................................................................
.............................. CYCLE   36 ..............................
........................................................................

 iter      E             dE          RMSdq      gap      omega  full diag
   1   -116.6549055 -0.116655E+03  0.184E-01    0.18       0.0  T
   2   -116.5468249  0.108081E+00  0.853E-01    0.37       1.0  T
   3   -116.6568785 -0.110054E+00  0.100E-01    0.18       1.0  T
   4   -116.6511571  0.572146E-02  0.205E-01    0.18       1.0  T
   5   -116.6575061 -0.634906E-02  0.255E-02    0.18       1.0  T
   6   -116.6575882 -0.820768E-04  0.738E-03    0.18       1.6  T
   7   -116.6575915 -0.328439E-05  0.421E-03    0.18       2.9  T
   8   -116.6575919 -0.454490E-06  0.210E-03    0.18       5.7  T
   9   -116.6575920 -0.833313E-07  0.112E-03    0.18      10.8  T
  10   -116.6575918  0.254364E-06  0.154E-03    0.18       7.8  T
  11   -116.6575921 -0.311797E-06  0.455E-04    0.18      26.4  T
  12   -116.6575921  0.143170E-07  0.488E-04    0.18      24.6  T
     SCC iter.                  ...        0 min,  0.058 sec
     gradient                   ...        0 min,  0.012 sec
 * total energy  :  -114.8700683 Eh     change       -0.5967096E-03 Eh
   gradient norm :     0.0177767 Eh/α   predicted    -0.6563642E-03 (  10.00%)
   displ. norm   :     0.3787900 α      lambda       -0.1207734E-02
   maximum displ.:     0.1832039 α      in ANC's #7, #3, #8, ...

........................................................................
.............................. CYCLE   37 ..............................
........................................................................

 iter      E             dE          RMSdq      gap      omega  full diag
   1   -116.6713653 -0.116671E+03  0.151E-01    0.18       0.0  T
   2   -116.5707424  0.100623E+00  0.820E-01    0.34       1.0  T
   3   -116.6724778 -0.101735E+00  0.979E-02    0.18       1.0  T
   4   -116.6710829  0.139490E-02  0.127E-01    0.18       1.0  T
   5   -116.6734417 -0.235877E-02  0.109E-02    0.18       1.1  T
   6   -116.6734465 -0.476761E-05  0.666E-03    0.18       1.8  T
   7   -116.6734500 -0.353993E-05  0.324E-03    0.18       3.7  T
   8   -116.6734500  0.144615E-08  0.207E-03    0.18       5.8  T
   9   -116.6734500  0.242447E-07  0.125E-03    0.18       9.6  T
  10   -116.6734501 -0.114810E-06  0.576E-04    0.18      20.9  T
  11   -116.6734501  0.409489E-08  0.443E-04    0.18      27.1  T
     SCC iter.                  ...        0 min,  0.053 sec
     gradient                   ...        0 min,  0.012 sec
 * total energy  :  -114.8703405 Eh     change       -0.2721847E-03 Eh
   gradient norm :     0.0204264 Eh/α   predicted    -0.6905125E-03 ( 153.69%)
   displ. norm   :     0.5138650 α      lambda       -0.1291226E-02
   maximum displ.:     0.3714260 α      in ANC's #7, #3, #10, ...

........................................................................
.............................. CYCLE   38 ..............................
........................................................................

 iter      E             dE          RMSdq      gap      omega  full diag
   1   -116.6630397 -0.116663E+03  0.170E-01    0.18       0.0  T
   2   -116.5782177  0.848220E-01  0.746E-01    0.29       1.0  T
   3   -116.6634474 -0.852297E-01  0.114E-01    0.19       1.0  T
   4   -116.6638084 -0.360941E-03  0.646E-02    0.18       1.0  T
   5   -116.6642203 -0.411901E-03  0.310E-02    0.18       1.0  T
   6   -116.6643550 -0.134718E-03  0.108E-02    0.18       1.1  T
   7   -116.6643671 -0.121454E-04  0.459E-03    0.18       2.6  T
   8   -116.6643681 -0.965250E-06  0.197E-03    0.18       6.1  T
   9   -116.6643682 -0.854978E-07  0.921E-04    0.18      13.1  T
  10   -116.6643681  0.940133E-07  0.106E-03    0.18      11.3  T
  11   -116.6643682 -0.109560E-06  0.453E-04    0.18      26.6  T
     SCC iter.                  ...        0 min,  0.054 sec
     gradient                   ...        0 min,  0.012 sec
 * total energy  :  -114.8710559 Eh     change       -0.7154116E-03 Eh
   gradient norm :     0.0162802 Eh/α   predicted    -0.8160956E-03 (  14.07%)
   displ. norm   :     0.5199976 α      lambda       -0.9900192E-03
   maximum displ.:     0.3362107 α      in ANC's #7, #3, #10, ...

........................................................................
.............................. CYCLE   39 ..............................
........................................................................

 iter      E             dE          RMSdq      gap      omega  full diag
   1   -116.6548665 -0.116655E+03  0.172E-01    0.19       0.0  T
   2   -116.5642097  0.906568E-01  0.771E-01    0.30       1.0  T
   3   -116.6558261 -0.916164E-01  0.102E-01    0.19       1.0  T
   4   -116.6551139  0.712219E-03  0.931E-02    0.18       1.0  T
   5   -116.6561800 -0.106613E-02  0.360E-02    0.19       1.0  T
   6   -116.6563788 -0.198778E-03  0.729E-03    0.19       1.7  T
   7   -116.6563795 -0.640044E-06  0.525E-03    0.19       2.3  T
   8   -116.6563812 -0.170277E-05  0.231E-03    0.19       5.2  T
   9   -116.6563815 -0.385302E-06  0.816E-04    0.19      14.7  T
  10   -116.6563813  0.214651E-06  0.132E-03    0.19       9.1  T
  11   -116.6563815 -0.216375E-06  0.412E-04    0.19      29.2  T
     SCC iter.                  ...        0 min,  0.055 sec
     gradient                   ...        0 min,  0.012 sec
 * total energy  :  -114.8714468 Eh     change       -0.3908557E-03 Eh
   gradient norm :     0.0172594 Eh/α   predicted    -0.6288598E-03 (  60.89%)
   displ. norm   :     0.3456458 α      lambda       -0.8486756E-03
   maximum displ.:     0.1651274 α      in ANC's #7, #3, #2, ...

........................................................................
.............................. CYCLE   40 ..............................
........................................................................

 iter      E             dE          RMSdq      gap      omega  full diag
   1   -116.6641976 -0.116664E+03  0.116E-01    0.19       0.0  T
   2   -116.5813295  0.828680E-01  0.733E-01    0.28       1.0  T
   3   -116.6652307 -0.839012E-01  0.573E-02    0.19       1.0  T
   4   -116.6644687  0.762017E-03  0.819E-02    0.19       1.0  T
   5   -116.6654192 -0.950518E-03  0.932E-03    0.19       1.3  T
   6   -116.6654240 -0.478434E-05  0.474E-03    0.19       2.5  T
   7   -116.6654243 -0.331782E-06  0.331E-03    0.19       3.6  T
   8   -116.6654245 -0.201374E-06  0.161E-03    0.19       7.5  T
   9   -116.6654246 -0.701299E-07  0.678E-04    0.19      17.7  T
  10   -116.6654246 -0.322487E-07  0.352E-04    0.19      34.2  T
     SCC iter.                  ...        0 min,  0.049 sec
     gradient                   ...        0 min,  0.012 sec
 * total energy  :  -114.8720464 Eh     change       -0.5996373E-03 Eh
   gradient norm :     0.0121475 Eh/α   predicted    -0.4750343E-03 ( -20.78%)
   displ. norm   :     0.7018279 α      lambda       -0.9963013E-03
   maximum displ.:     0.4344472 α      in ANC's #7, #3, #2, ...

........................................................................
.............................. CYCLE   41 ..............................
........................................................................

 iter      E             dE          RMSdq      gap      omega  full diag
   1   -116.6615560 -0.116662E+03  0.231E-01    0.20       0.0  T
   2   -116.5256866  0.135869E+00  0.958E-01    0.43       1.0  T
   3   -116.6645238 -0.138837E+00  0.132E-01    0.20       1.0  T
   4   -116.6582820  0.624180E-02  0.225E-01    0.20       1.0  T
   5   -116.6657729 -0.749089E-02  0.284E-02    0.19       1.0  T
   6   -116.6658372 -0.642587E-04  0.127E-02    0.19       1.0  T
   7   -116.6658473 -0.101700E-04  0.660E-03    0.19       1.8  T
   8   -116.6658481 -0.743304E-06  0.287E-03    0.19       4.2  T
   9   -116.6658476  0.461023E-06  0.258E-03    0.19       4.7  T
  10   -116.6658483 -0.702378E-06  0.114E-03    0.19      10.6  T
  11   -116.6658484 -0.830183E-07  0.547E-04    0.19      22.0  T
  12   -116.6658484  0.175802E-07  0.540E-04    0.19      22.3  T
     SCC iter.                  ...        0 min,  0.058 sec
     gradient                   ...        0 min,  0.012 sec
 * total energy  :  -114.8726342 Eh     change       -0.5878445E-03 Eh
   gradient norm :     0.0127444 Eh/α   predicted    -0.7435284E-03 (  26.48%)
   displ. norm   :     0.5067154 α      lambda       -0.9613463E-03
   maximum displ.:     0.2447079 α      in ANC's #3, #2, #7, ...

........................................................................
.............................. CYCLE   42 ..............................
........................................................................

 iter      E             dE          RMSdq      gap      omega  full diag
   1   -116.6764670 -0.116676E+03  0.143E-01    0.20       0.0  T
   2   -116.5991709  0.772961E-01  0.706E-01    0.27       1.0  T
   3   -116.6774508 -0.782799E-01  0.734E-02    0.20       1.0  T
   4   -116.6756584  0.179245E-02  0.107E-01    0.19       1.0  T
   5   -116.6774859 -0.182757E-02  0.176E-02    0.20       1.0  T
   6   -116.6775173 -0.313972E-04  0.658E-03    0.20       1.8  T
   7   -116.6775173  0.229246E-07  0.536E-03    0.20       2.2  T
   8   -116.6775199 -0.259941E-05  0.156E-03    0.20       7.7  T
   9   -116.6775200 -0.819366E-07  0.646E-04    0.20      18.6  T
  10   -116.6775200  0.223342E-07  0.652E-04    0.20      18.5  T
     SCC iter.                  ...        0 min,  0.049 sec
     gradient                   ...        0 min,  0.012 sec
 * total energy  :  -114.8731789 Eh     change       -0.5446744E-03 Eh
   gradient norm :     0.0147263 Eh/α   predicted    -0.6040919E-03 (  10.91%)
   displ. norm   :     0.7048954 α      lambda       -0.1171057E-02
   maximum displ.:     0.3914834 α      in ANC's #7, #3, #2, ...
 * RMSD in coord.:     1.1657450 α      energy gain  -0.1114097E-01 Eh

generating ANC from exact Hessian ...
Using Lindh-Hessian (1995)
 Shifting diagonal of input Hessian by   9.854867856423425E-003
 Lowest  eigenvalues of input Hessian
    0.000000    0.000000    0.000000    0.000000    0.000000    0.000000
    0.010000    0.010058    0.010181    0.010416    0.010668    0.010912
    0.011090    0.011240    0.011559    0.011638    0.012262    0.012622
 Highest eigenvalues
    2.072984    2.118820    2.172676    2.445884    2.758294    2.830590
 

........................................................................
.............................. CYCLE   43 ..............................
........................................................................

 iter      E             dE          RMSdq      gap      omega  full diag
   1   -116.6635827 -0.116664E+03  0.222E-01    0.21       0.0  T
   2   -116.5455485  0.118034E+00  0.881E-01    0.35       1.0  T
   3   -116.6655257 -0.119977E+00  0.128E-01    0.21       1.0  T
   4   -116.6632880  0.223776E-02  0.141E-01    0.20       1.0  T
   5   -116.6658009 -0.251296E-02  0.509E-02    0.20       1.0  T
   6   -116.6661815 -0.380513E-03  0.120E-02    0.20       1.0  T
   7   -116.6661798  0.166456E-05  0.853E-03    0.20       1.4  T
   8   -116.6661848 -0.503866E-05  0.383E-03    0.20       3.1  T
   9   -116.6661861 -0.128720E-05  0.192E-03    0.20       6.3  T
  10   -116.6661862 -0.514514E-07  0.157E-03    0.20       7.7  T
  11   -116.6661864 -0.261915E-06  0.521E-04    0.20      23.1  T
  12   -116.6661864  0.574647E-08  0.475E-04    0.20      25.3  T
     SCC iter.                  ...        0 min,  0.058 sec
     gradient                   ...        0 min,  0.012 sec
 * total energy  :  -114.8739010 Eh     change       -0.7220559E-03 Eh
   gradient norm :     0.0122772 Eh/α   predicted     0.0000000E+00 (-100.00%)
[...]
         :: repulsion energy           1.863262110167 Eh    ::
         :: add. restraining           0.001461166440 Eh    ::
         :: total charge               0.000000000001 e     ::
         :::::::::::::::::::::::::::::::::::::::::::::::::::::

           -------------------------------------------------
          |                Property Printout                |
           -------------------------------------------------

    * Orbital Energies and Occupations

         #    Occupation            Energy/Eh            Energy/eV
      -------------------------------------------------------------
         1        2.0000           -0.8296004             -22.5746
       ...           ...                  ...                  ...
        93        2.0000           -0.4019220             -10.9369
        94        2.0000           -0.3988049             -10.8520
        95        2.0000           -0.3960042             -10.7758
        96        2.0000           -0.3822877             -10.4026
        97        2.0000           -0.3792859             -10.3209
        98        2.0000           -0.3754969             -10.2178
        99        2.0000           -0.3738832             -10.1739
       100        2.0000           -0.3710297             -10.0962
       101        2.0000           -0.3639101              -9.9025
       102        2.0000           -0.3597775              -9.7900
       103        2.0000           -0.3545688              -9.6483
       104        2.0000           -0.3448644              -9.3842
       105        1.9999           -0.3271167              -8.9013 (HOMO)
       106        0.0001           -0.3075897              -8.3699 (LUMO)
       107                         -0.2830166              -7.7013
       108                         -0.2455372              -6.6814
       109                         -0.2434131              -6.6236
       110                         -0.2431553              -6.6166
       111                         -0.2398700              -6.5272
       112                         -0.2361268              -6.4253
       113                         -0.2295879              -6.2474
       114                         -0.2261243              -6.1532
       115                         -0.2041101              -5.5541
       116                         -0.2013723              -5.4796
       ...                                ...                  ...
       200                          1.4718545              40.0512
      -------------------------------------------------------------
                  HL-Gap            0.0195270 Eh            0.5314 eV
             Fermi-level           -0.3173532 Eh           -8.6356 eV

     #   Z          covCN         q      C6AA      α(0)
     1   8 O        0.856    -0.210    18.224     5.723
     2   6 C        1.720     0.462    21.613     7.524
     3   8 O        1.585    -0.108    16.004     5.398
     4  28 Ni       3.220    -0.126   185.862    28.130
     5   7 N        2.630    -0.046    22.136     6.988
     6   6 C        2.873     0.052    26.822     8.490
     7   6 C        2.972     0.013    27.723     8.637
     8   6 C        2.921    -0.019    28.471     8.750
     9   6 C        2.917    -0.024    28.615     8.772
    10   6 C        2.920    -0.023    28.576     8.766
    11   6 C        2.916    -0.026    28.657     8.778
    12   6 C        2.926    -0.032    28.789     8.799
    13   6 C        2.968     0.081    26.184     8.393
    14   6 C        2.920    -0.040    28.997     8.831
    15   6 C        2.919    -0.025    28.635     8.775
    16   6 C        2.920    -0.026    28.644     8.777
    17   6 C        2.917    -0.024    28.596     8.769
    18   6 C        2.930    -0.023    28.573     8.766
    19   6 C        3.758    -0.103    22.512     6.764
    20   6 C        2.959    -0.015    28.387     8.739
    21   6 C        2.918    -0.058    29.446     8.898
    22   6 C        2.986     0.001    28.003     8.680
    23   6 C        2.921    -0.038    28.950     8.823
    24   6 C        2.916    -0.036    28.884     8.813
    25   6 C        2.917    -0.036    28.895     8.815
    26   6 C        2.919    -0.033    28.831     8.805
    27   6 C        2.985     0.002    27.984     8.677
    28   6 C        2.966    -0.013    28.334     8.731
    29   6 C        2.965    -0.031    28.765     8.797
    30   6 C        2.846     0.170    24.344     8.086
    31   8 O        1.595    -0.331    19.596     5.974
    32   8 O        1.593    -0.314    19.294     5.928
    33   6 C        2.984     0.168    24.383     8.100
    34   6 C        2.961    -0.013    28.338     8.732
    35   6 C        3.758    -0.096    22.378     6.744
    36   6 C        2.918    -0.052    29.290     8.875
    37   6 C        2.986    -0.001    28.050     8.688
    38   6 C        2.922    -0.037    28.932     8.821
    39   6 C        2.915    -0.037    28.925     8.819
    40   6 C        2.917    -0.035    28.862     8.810
    41   6 C        2.920    -0.035    28.882     8.813
    42   6 C        2.986     0.004    27.925     8.668
    43   1 H        0.924     0.037     2.487     2.466
    44   1 H        0.936     0.143     1.438     1.875
    45   1 H        0.926     0.051     2.305     2.374
    46   1 H        0.926     0.044     2.399     2.422
    47   1 H        0.926     0.041     2.436     2.441
    48   1 H        0.926     0.037     2.489     2.467
    49   1 H        0.926     0.042     2.419     2.432
    50   1 H        0.926     0.042     2.418     2.432
    51   1 H        0.926     0.044     2.394     2.420
    52   1 H        0.926     0.046     2.373     2.409
    53   1 H        0.924     0.087     1.906     2.159
    54   1 H        0.924     0.050     2.315     2.379
    55   1 H        0.925     0.054     2.265     2.353
    56   1 H        0.925     0.032     2.552     2.498
    57   1 H        0.925     0.025     2.659     2.550
    58   1 H        0.925     0.023     2.691     2.565
    59   1 H        0.926     0.022     2.698     2.568
    60   1 H        0.926     0.023     2.686     2.563
    61   1 H        0.926     0.031     2.575     2.509
    62   1 H        0.925     0.035     2.523     2.484
    63   1 H        0.924     0.034     2.533     2.489
    64   1 H        0.925     0.050     2.317     2.380
    65   1 H        0.925     0.028     2.611     2.527
    66   1 H        0.925     0.023     2.692     2.566
    67   1 H        0.926     0.020     2.729     2.583
    68   1 H        0.926     0.021     2.722     2.580
    69   1 H        0.926     0.026     2.637     2.540

 Mol. C6AA /au·bohr⁶  :      70991.770836
 Mol. C8AA /au·bohr⁸  :    1918427.753550
 Mol. α(0) /au        :        432.702356


Wiberg/Mayer (AO) data.
largest (>0.10) Wiberg bond orders for each atom

 ---------------------------------------------------------------------------
     #   Z sym  total        # sym  WBO       # sym  WBO       # sym  WBO
 ---------------------------------------------------------------------------
     1   8 O    2.378 --     2 C    1.977     3 O    0.364
     2   6 C    3.932 --     1 O    1.977     3 O    1.869
     3   8 O    2.626 --     2 C    1.869     1 O    0.364     4 Ni   0.362
     4  28 Ni   3.453 --    32 O    0.770    31 O    0.736     5 N    0.545
                             3 O    0.362    44 H    0.113     8 C    0.112
     5   7 N    3.539 --     6 C    1.614    13 C    1.076     4 Ni   0.545
     6   6 C    3.943 --     5 N    1.614     7 C    1.127    43 H    0.943
     7   6 C    3.987 --    12 C    1.349     8 C    1.339     6 C    1.127
     8   6 C    3.979 --     9 C    1.474     7 C    1.339    44 H    0.835
                             4 Ni   0.112    11 C    0.101
     9   6 C    3.991 --     8 C    1.474    10 C    1.417    45 H    0.969
    10   6 C    3.956 --    11 C    1.426     9 C    1.417    46 H    0.971
    11   6 C    3.991 --    12 C    1.465    10 C    1.426    47 H    0.970
                             8 C    0.101
    12   6 C    3.972 --    11 C    1.465     7 C    1.349    48 H    0.968
    13   6 C    3.971 --    14 C    1.354    18 C    1.334     5 N    1.076
    14   6 C    3.981 --    15 C    1.455    13 C    1.354    49 H    0.965
                            17 C    0.103
    15   6 C    3.990 --    14 C    1.455    16 C    1.431    50 H    0.970
                            18 C    0.103
    16   6 C    3.978 --    15 C    1.431    17 C    1.424    51 H    0.970
    17   6 C    3.990 --    18 C    1.459    16 C    1.424    52 H    0.969
                            14 C    0.103
    18   6 C    3.983 --    17 C    1.459    13 C    1.334    53 H    0.890
                            15 C    0.103
    19   6 C    3.995 --    20 C    1.025    56 H    0.983    55 H    0.972
                            54 H    0.965
    20   6 C    3.983 --    21 C    1.588    33 C    1.154    19 C    1.025
    21   6 C    3.977 --    20 C    1.588    22 C    1.231    57 H    0.965
    22   6 C    3.982 --    23 C    1.305    27 C    1.257    21 C    1.231
    23   6 C    3.985 --    24 C    1.528    22 C    1.305    58 H    0.969
                            26 C    0.111
    24   6 C    3.971 --    23 C    1.528    25 C    1.340    59 H    0.971
    25   6 C    3.986 --    26 C    1.532    24 C    1.340    60 H    0.971
    26   6 C    3.988 --    25 C    1.532    27 C    1.299    61 H    0.965
                            23 C    0.111
    27   6 C    3.988 --    26 C    1.299    22 C    1.257    28 C    1.213
    28   6 C    3.972 --    33 C    1.287    27 C    1.213    29 C    1.110
    29   6 C    3.958 --    30 C    1.306    42 C    1.216    28 C    1.110
    30   6 C    3.945 --    29 C    1.306    31 O    1.249    34 C    1.153
    31   8 O    2.323 --    30 C    1.249     4 Ni   0.736
    32   8 O    2.254 --    33 C    1.216     4 Ni   0.770
    33   6 C    3.950 --    28 C    1.287    32 O    1.216    20 C    1.154
    34   6 C    3.976 --    36 C    1.581    30 C    1.153    35 C    1.025
    35   6 C    3.996 --    34 C    1.025    62 H    0.986    63 H    0.972
                            64 H    0.972
    36   6 C    3.976 --    34 C    1.581    37 C    1.236    65 H    0.963
    37   6 C    3.982 --    38 C    1.301    42 C    1.260    36 C    1.236
    38   6 C    3.983 --    39 C    1.531    37 C    1.301    66 H    0.969
                            41 C    0.111
    39   6 C    3.975 --    38 C    1.531    40 C    1.337    67 H    0.972
    40   6 C    3.985 --    41 C    1.536    39 C    1.337    68 H    0.971
    41   6 C    3.983 --    40 C    1.536    42 C    1.294    69 H    0.965
                            38 C    0.111
    42   6 C    3.987 --    41 C    1.294    37 C    1.260    29 C    1.216
    43   1 H    0.994 --     6 C    0.943
    44   1 H    0.979 --     8 C    0.835     4 Ni   0.113
    45   1 H    0.997 --     9 C    0.969
    46   1 H    0.997 --    10 C    0.971
    47   1 H    0.998 --    11 C    0.970
    48   1 H    0.999 --    12 C    0.968
    49   1 H    0.998 --    14 C    0.965
    50   1 H    0.997 --    15 C    0.970
    51   1 H    0.998 --    16 C    0.970
    52   1 H    0.997 --    17 C    0.969
    53   1 H    0.992 --    18 C    0.890
    54   1 H    0.994 --    19 C    0.965
    55   1 H    0.996 --    19 C    0.972
    56   1 H    0.998 --    19 C    0.983
    57   1 H    0.998 --    21 C    0.965
    58   1 H    0.999 --    23 C    0.969
    59   1 H    0.999 --    24 C    0.971
    60   1 H    0.999 --    25 C    0.971
    61   1 H    0.999 --    26 C    0.965
    62   1 H    0.998 --    35 C    0.986
    63   1 H    0.996 --    35 C    0.972
    64   1 H    0.995 --    35 C    0.972
    65   1 H    0.995 --    36 C    0.963
    66   1 H    0.999 --    38 C    0.969
    67   1 H    0.999 --    39 C    0.972
    68   1 H    0.999 --    40 C    0.971
    69   1 H    0.999 --    41 C    0.965
 ---------------------------------------------------------------------------

Topologies differ in total number of bonds
Writing topology from bond orders to xtbtopo.mol

molecular dipole:
                 x           y           z       tot (Debye)
 q only:        0.031      -2.202      -2.318
   full:        0.226      -2.125      -2.765       8.881
molecular quadrupole (traceless):
                xx          xy          yy          xz          yz          zz
 q only:      -32.181      18.175      17.790      14.288      58.197      14.391
  q+dip:      -33.048      12.725      18.648      15.919      68.142      14.400
   full:      -38.109      14.199      14.926      14.797      65.267      23.183

           -------------------------------------------------
          |                Geometry Summary                 |
           -------------------------------------------------

      molecular mass/u    :      596.2985627
   center of mass at/Å    :       -2.0635334      -3.8954291      -4.3162537
  moments of inertia/u·Å² :        0.4079847E+04   0.6773916E+04   0.9042535E+04
rotational constants/cm⁻¹ :        0.4131927E-02   0.2488609E-02   0.1864259E-02

 * 69 selected distances

     #   Z          #   Z                                           value/Å
     1   8 O        2   6 C                                       1.1445519
     2   6 C        3   8 O                                       1.1509875
     3   8 O        4  28 Ni                                      1.8365536
     4  28 Ni       5   7 N                                       1.8713222 (max)
     5   7 N        6   6 C                                       1.2897238
     7   6 C        8   6 C                                       1.4025228
     8   6 C        9   6 C                                       1.3794786
     9   6 C       10   6 C                                       1.3883360
    10   6 C       11   6 C                                       1.3864777
     7   6 C       12   6 C                                       1.4004054
    11   6 C       12   6 C                                       1.3802666
     5   7 N       13   6 C                                       1.3973556
    13   6 C       14   6 C                                       1.3955680
    14   6 C       15   6 C                                       1.3815587
    15   6 C       16   6 C                                       1.3850675
    16   6 C       17   6 C                                       1.3856656
    13   6 C       18   6 C                                       1.4002757
    17   6 C       18   6 C                                       1.3799123
    20   6 C       21   6 C                                       1.3586189
    21   6 C       22   6 C                                       1.4156194
    22   6 C       23   6 C                                       1.4052897
    23   6 C       24   6 C                                       1.3693489
    24   6 C       25   6 C                                       1.3992514
    25   6 C       26   6 C                                       1.3695522
    22   6 C       27   6 C                                       1.4178331
    26   6 C       27   6 C                                       1.4098027
    27   6 C       28   6 C                                       1.4320085
    29   6 C       30   6 C                                       1.4102186
     4  28 Ni      31   8 O                                       1.8182393
    30   6 C       31   8 O                                       1.3003215
     4  28 Ni      32   8 O                                       1.8186259
    28   6 C       33   6 C                                       1.4121038
    32   8 O       33   6 C                                       1.3095950
    34   6 C       36   6 C                                       1.3581180
    36   6 C       37   6 C                                       1.4130893
    37   6 C       38   6 C                                       1.4057637
    38   6 C       39   6 C                                       1.3684517
    39   6 C       40   6 C                                       1.3992681
    40   6 C       41   6 C                                       1.3690262
    29   6 C       42   6 C                                       1.4318378
    37   6 C       42   6 C                                       1.4160688
    41   6 C       42   6 C                                       1.4111488
     6   6 C       43   1 H                                       1.0924835
     8   6 C       44   1 H                                       1.1003649
     9   6 C       45   1 H                                       1.0794104
    10   6 C       46   1 H                                       1.0794871
    11   6 C       47   1 H                                       1.0798539
    12   6 C       48   1 H                                       1.0809034
    14   6 C       49   1 H                                       1.0800166
    15   6 C       50   1 H                                       1.0799844
    16   6 C       51   1 H                                       1.0789486 (min)
    17   6 C       52   1 H                                       1.0792056
    18   6 C       53   1 H                                       1.0919081
    19   6 C       54   1 H                                       1.0904541
    19   6 C       55   1 H                                       1.0878445
    19   6 C       56   1 H                                       1.0874548
    21   6 C       57   1 H                                       1.0815516
    23   6 C       58   1 H                                       1.0813513
    24   6 C       59   1 H                                       1.0805346
    25   6 C       60   1 H                                       1.0805043
    26   6 C       61   1 H                                       1.0795957
    35   6 C       62   1 H                                       1.0870084
    35   6 C       63   1 H                                       1.0908407
    35   6 C       64   1 H                                       1.0892508
    36   6 C       65   1 H                                       1.0818052
    38   6 C       66   1 H                                       1.0814808
    39   6 C       67   1 H                                       1.0804199
    40   6 C       68   1 H                                       1.0806584
    41   6 C       69   1 H                                       1.0792788

 * 6 distinct bonds (by element types)

   Z      Z             #   av. dist./Å        max./Å        min./Å
   1 H    6 C          27     1.0838000     1.1003649     1.0789486
   6 C    6 C          32     1.3949361     1.4320085     1.3581180
   6 C    7 N           2     1.3435397     1.3973556     1.2897238
   6 C    8 O           4     1.2263640     1.3095950     1.1445519
   7 N   28 Ni          1     1.8713222     1.8713222     1.8713222
   8 O   28 Ni          3     1.8244729     1.8365536     1.8182393


optimized geometry written to: xtbopt.xyz


           -------------------------------------------------
          | TOTAL ENERGY             -114.929169295393 Eh   |
          | GRADIENT NORM               0.000096647770 Eh/α |
          | HOMO-LUMO GAP               0.531357986288 eV   |
           -------------------------------------------------

------------------------------------------------------------------------
 * finished run on 2026/01/26 at 16:45:23.655     
------------------------------------------------------------------------
 total:
 * wall-time:     0 d,  0 h,  0 min, 10.351 sec
 *  cpu-time:     0 d,  0 h,  1 min, 22.759 sec
 * ratio c/w:     7.995 speedup
 SCF:
 * wall-time:     0 d,  0 h,  0 min,  0.167 sec
 *  cpu-time:     0 d,  0 h,  0 min,  1.331 sec
 * ratio c/w:     7.980 speedup
 ANC optimizer:
 * wall-time:     0 d,  0 h,  0 min, 10.168 sec
 *  cpu-time:     0 d,  0 h,  1 min, 21.314 sec
 * ratio c/w:     7.997 speedup

