97
 energy: -18.334696681638 gnorm: 0.009220664045 xtb: 6.7.1 (edcfbbe)
O            8.19960287319487       -5.19659718477641       -1.24409003534793
C            7.16665094078579       -4.72154474309849       -1.70820115302280
O            6.15545369372331       -4.19757378577804       -0.87269155258798
Ni           5.51667761034077       -3.88229324828170       -2.68213940524124
N            6.10119804905703       -4.22114249033300       -4.52559400506119
C            7.17827758170365       -4.89102035033215       -3.49631097686670
C            8.57021232326247       -4.82262403067051       -4.06273459072061
C            8.85941083869453       -4.03605799593213       -5.16314970039301
C           10.11157167461438       -4.05678925295719       -5.74159100211274
C           11.09867926585830       -4.86490959641378       -5.22094350890857
C           10.83066913541259       -5.63993924655932       -4.11404460168872
C            9.57704292479943       -5.61691415938008       -3.54373681661558
C            5.67859639165309       -4.81066343130187       -5.67342108618701
C            6.14609321991694       -6.06700715364507       -6.09161573955097
C            5.65369323344169       -6.65686851225309       -7.22495487456518
C            4.68793924948876       -6.01727698460654       -7.97839139462524
C            4.22904038257798       -4.77058078495437       -7.59946443861022
C            4.71616130367890       -4.17168495322812       -6.46930547847339
C            2.17864808240778        1.39782599357302       -1.92015105977454
N            4.80455336446845       -5.71001729145982       -2.76351589054255
C            3.58129619861343       -4.75261030701324       -3.03708301497737
C            3.65375283690552       -3.01054723192120       -3.21745850581430
N            5.08952240245305       -2.08072081639030       -2.82978800903494
C            5.67400200913370       -1.38665304879538       -3.99988720921361
C            4.75492617422271       -1.11386688909761       -1.71424998622867
C            5.48168006982523       -1.38161656483536       -0.43503311115186
C            6.75124920379547       -0.81015772928662       -0.21709652786033
C            7.36662776323497        0.08699590216229       -1.13832021214399
C            8.58764801950776        0.62890898306447       -0.90190309378898
C            9.29506854179258        0.30896918324455        0.26801503754764
C            8.76269309640075       -0.54615207348645        1.17425422017694
C            7.48177050551799       -1.12853845287871        0.96763507647747
C            6.94141993053951       -2.01512326228622        1.89116910361128
C            5.69041161238932       -2.58557376516505        1.69502309944650
C            5.17389555497247       -3.54482980247292        2.60964092571386
C            3.98646423232093       -4.15590561730532        2.38132915766808
C            3.23084215471988       -3.83188137324222        1.24215111424573
C            3.67413890687971       -2.90343344997482        0.35834437794194
C            4.93154692568646       -2.25004333700205        0.53078222302028
C            0.27187048843150       -1.00143346206367        0.50481791236063
C           -1.05482171907577       -1.41921633682863        0.06006012303634
C           -1.97375872580467       -0.50908051018902       -0.50404056089120
C           -1.68036925888419        0.87293193389661       -0.70823432609120
C           -2.59606932864172        1.71888078984263       -1.24459041304769
C           -3.87087927556994        1.25710631107908       -1.61774059525005
C           -4.19970937101410       -0.04705281829565       -1.45191198043125
C           -3.26926937256045       -0.97047012227071       -0.89931468073319
C           -3.60587100362190       -2.31038513207181       -0.74334596168518
C           -2.70461187999006       -3.22207036099294       -0.20874528511589
C           -3.04085959086960       -4.59675842603097       -0.05893772770483
C           -2.15167504313681       -5.47713220643605        0.46418483940472
C           -0.87575271820269       -5.04300625138878        0.86797062993140
C           -0.51823327211286       -3.74027755747401        0.74136465344201
C           -1.41308324310502       -2.77417154256274        0.19985769906177
H            6.87918541163284       -5.95601060370952       -3.53708161385300
H            8.08209118278354       -3.41793674997638       -5.57205231385675
H           10.31528197935885       -3.44338701861511       -6.60240434666673
H           12.07393038641544       -4.89093583199233       -5.67751656849820
H           11.60166955839409       -6.26132757423887       -3.69020575083227
H            9.37236630708905       -6.19443501366687       -2.65735552706589
H            6.91078342197636       -6.55881478469767       -5.52397680649607
H            6.01170293739764       -7.62670956417712       -7.52562393854178
H            4.29996919069668       -6.48629068417123       -8.86481375727931
H            3.48130805871889       -4.27251410618457       -8.19196474925051
H            4.36823162523214       -3.19792546287456       -6.18000757843848
H            1.23114633550420        1.36122347563925       -2.41193474113773
H            2.05584156220727        1.78194443184488       -0.93098611360651
H            2.84168465835849        2.03127778637758       -2.46792447658364
H            2.89530441175151       -4.95496821960419       -2.20250906571517
H            3.08943706659448       -5.16339156091812       -3.93238115449259
H            2.80978505195992       -2.57004748372198       -2.67408151271158
H            3.45071863988456       -2.77742220321054       -4.26942212324766
H            6.62668118150944       -0.93779381886076       -3.73528551048531
H            5.85338358337676       -2.08571760417589       -4.80771064562960
H            5.00378339333252       -0.60901195199711       -4.35805463869062
H            4.94862612296387       -0.09353756099565       -2.04982365485585
H            3.67967402731086       -1.12052186537036       -1.53668634977243
H            6.85446417335252        0.34598293154279       -2.04310502371217
H            9.02781862890329        1.30640289262286       -1.61457882191514
H           10.26554734237076        0.74423586606011        0.43789194886008
H            9.31166248453114       -0.80600577777614        2.06297561381888
H            7.51282812395930       -2.28565547775891        2.76122002508738
H            5.76310665130004       -3.80689571742663        3.47140470900761
H            3.61705880472921       -4.89732082668278        3.07000430506322
H            2.30830836499654       -4.35539726100014        1.06186271431988
H            3.07670877033352       -2.68533721772797       -0.50616032357024
H            0.45222116265031        0.05130580723819        0.43415520961222
H            0.47891827780067       -1.31397450321735        1.51048355394059
H           -0.71451599104547        1.25985345061490       -0.44068826547885
H           -2.34833430431735        2.75782325863839       -1.39032627812856
H           -4.58537810388353        1.94588199479883       -2.03827328863147
H           -5.17496925037256       -0.40224923627130       -1.73805983625086
H           -4.58069775604779       -2.64836791187119       -1.04599052244423
H           -4.01630415919495       -4.92882142894292       -0.36990027551911
H           -2.41828768831529       -6.51604744315175        0.56993099029206
H           -0.18038431942195       -5.75603146189810        1.28029010806919
H            0.45975165719864       -3.42179341929465        1.05056665205391
