69
 energy: -13.714419772187 gnorm: 0.008713427404 xtb: 6.7.1 (edcfbbe)
O           -4.41157570636271       -4.45851255205076       -8.75208428860479
C           -4.11718880512412       -4.68095102434037       -7.57732924535850
O           -4.36350535947313       -3.92421560199880       -6.56147716318113
Ni          -2.84559941603952       -4.10703221726235       -5.28637672982333
N           -2.65029583944203       -5.94453973631640       -6.07197267855791
C           -3.43148235237164       -6.00391221979991       -7.28597909668540
C           -4.41943891614165       -7.14535173070125       -7.29149059238264
C           -4.18156325862051       -8.28767671921324       -6.54879875546141
C           -5.04848523214775       -9.35630697042379       -6.60085918086386
C           -6.16427187984405       -9.29767959397691       -7.40595404129002
C           -6.40815298102537       -8.17014523566280       -8.15901445970306
C           -5.53746220369671       -7.10491959655961       -8.10511612106934
C           -1.36352318983800       -6.46106135283619       -6.03793508633011
C           -0.99563828801831       -7.42704179401561       -5.08453959801788
C            0.23363176912510       -8.03160330160496       -5.14519334321393
C            1.13911810548472       -7.67704440199740       -6.13112072925261
C            0.80973763458953       -6.70486156311973       -7.05769774983669
C           -0.42048157916016       -6.10339071372045       -7.01988187776675
C            1.01196326958726       -5.51777276521349       -3.19838808047518
C            0.83856167773832       -4.05422905385929       -3.11857532839467
C            1.86618051464835       -3.26817890447513       -2.75381877117135
C            1.73878531842974       -1.83962574791918       -2.67297126743392
C            2.85290757924855       -1.02757910108447       -2.45754497598066
C            2.73337744989376        0.33969233259727       -2.45000675635299
C            1.49941376570930        0.93156406791952       -2.66795377958076
C            0.38683333883746        0.15310014639273       -2.86018175843035
C            0.47106011180874       -1.24403573389638       -2.83192578145310
C           -0.72315104236873       -2.08015950252059       -2.97390847202047
C           -2.00223719504190       -1.61878915703376       -2.56279218716360
C           -3.18943507387213       -1.88172915283498       -3.38453968850740
O           -3.08054305343676       -2.25855310794664       -4.59482267216941
O           -1.35880210049794       -4.21856130361183       -3.96734165173864
C           -0.47942795598981       -3.48144223861028       -3.40618739638298
C           -4.52333663707772       -1.61834889179992       -2.86117117685140
C           -5.68878126383475       -2.12156059682997       -3.62713391125897
C           -4.66293856206295       -0.89402518065672       -1.73949579474971
C           -3.52627122418268       -0.43082788134475       -0.98477553659659
C           -3.71616806910149        0.34985773166174        0.15734048645348
C           -2.65707686199915        0.71305606042484        0.95003312820022
C           -1.38274483174801        0.27427954691116        0.63676695071730
C           -1.17344835154063       -0.49277663417696       -0.47990608958535
C           -2.21811385547451       -0.82655490078080       -1.35057029788929
H           -2.73163097700450       -6.18443972444313       -8.11048392436170
H           -3.30388488931396       -8.33143524832224       -5.93206150422737
H           -4.85179657884627      -10.23872732306119       -6.01582563703828
H           -6.84051061527317      -10.13458934881442       -7.45039401520671
H           -7.27575469159946       -8.12696472980283       -8.79454099582729
H           -5.71243165123318       -6.22598955742789       -8.70076741356775
H           -1.69938039569637       -7.68915630890473       -4.31454738433258
H            0.50148072121390       -8.78306106205222       -4.42090987898726
H            2.10308948206883       -8.15630943623906       -6.17431379609284
H            1.52194612686355       -6.41981715291069       -7.81383336446032
H           -0.67410057929859       -5.33054964851664       -7.72357182761736
H            1.14909144044609       -5.95068080895539       -2.20750455027739
H            0.12606433085582       -5.96917029688521       -3.64045390355280
H            1.87635486307500       -5.78215517191156       -3.81058935656307
H            2.82257082658112       -3.71190333798586       -2.54187385743358
H            3.81518039470124       -1.48788864044134       -2.31084220050417
H            3.60185674723652        0.95523133880754       -2.28399047770155
H            1.41288159189610        2.00535012390375       -2.67809857912473
H           -0.57124085370725        0.61219117135736       -3.03247346693947
H           -6.38933382760877       -1.31739055033056       -3.85594492904413
H           -5.35900934698442       -2.56028203747090       -4.57131627837537
H           -6.21832158897865       -2.89278496118451       -3.06665096307040
H           -5.65037057486924       -0.66638538813236       -1.38014054536004
H           -4.71327082658375        0.66133500916391        0.41653547026457
H           -2.81811827700861        1.32261344810891        1.82376003317971
H           -0.55380204754181        0.53507171452091        1.27368399158775
H           -0.18263425311276       -0.85542678036280       -0.68271910049820
