97
 energy: -145.722957915634 gnorm: 0.365782881447 xtb: 6.7.1 (edcfbbe)
O            8.19960287319487       -5.19659718477641       -1.24409003534793
C            7.16665094078579       -4.72154474309849       -1.70820115302280
O            6.15545369372331       -4.19757378577804       -0.87269155258798
Ni           5.51667761034077       -3.88229324828170       -2.68213940524124
N            6.10119804905703       -4.22114249033300       -4.52559400506119
C            7.17827758170365       -4.89102035033215       -3.49631097686670
C            8.57021232326247       -4.82262403067051       -4.06273459072061
C            8.85941083869453       -4.03605799593213       -5.16314970039301
C           10.11157167461438       -4.05678925295719       -5.74159100211274
C           11.09867926585830       -4.86490959641378       -5.22094350890857
C           10.83066913541259       -5.63993924655932       -4.11404460168872
C            9.57704292479943       -5.61691415938008       -3.54373681661558
C            5.67859639165309       -4.81066343130187       -5.67342108618701
C            6.14609321991694       -6.06700715364507       -6.09161573955097
C            5.65369323344169       -6.65686851225309       -7.22495487456518
C            4.68793924948876       -6.01727698460654       -7.97839139462524
C            4.22904038257798       -4.77058078495437       -7.59946443861022
C            4.71616130367890       -4.17168495322812       -6.46930547847339
C            2.17864808240778        1.39782599357302       -1.92015105977454
N            4.80455336446845       -5.71001729145982       -2.76351589054255
C            3.58129619861343       -4.75261030701324       -3.03708301497737
C            3.65375283690552       -3.01054723192120       -3.21745850581430
N            5.08952240245305       -2.08072081639030       -2.82978800903494
C            5.67400200913370       -1.38665304879538       -3.99988720921361
C            4.75492617422271       -1.11386688909761       -1.71424998622867
C            5.48168006982523       -1.38161656483536       -0.43503311115186
C            6.75124920379547       -0.81015772928662       -0.21709652786033
C            7.36662776323497        0.08699590216229       -1.13832021214399
C            8.58764801950776        0.62890898306447       -0.90190309378898
C            9.29506854179258        0.30896918324455        0.26801503754764
C            8.76269309640075       -0.54615207348645        1.17425422017694
C            7.48177050551799       -1.12853845287871        0.96763507647747
C            6.94141993053951       -2.01512326228622        1.89116910361128
C            5.69041161238932       -2.58557376516505        1.69502309944650
C            5.17389555497247       -3.54482980247292        2.60964092571386
C            3.98646423232093       -4.15590561730532        2.38132915766808
C            3.23084215471988       -3.83188137324222        1.24215111424573
C            3.67413890687971       -2.90343344997482        0.35834437794194
C            4.93154692568646       -2.25004333700205        0.53078222302028
C            0.27187048843150       -1.00143346206367        0.50481791236063
C           -1.05482171907577       -1.41921633682863        0.06006012303634
C           -1.97375872580467       -0.50908051018902       -0.50404056089120
C           -1.68036925888419        0.87293193389661       -0.70823432609120
C           -2.59606932864172        1.71888078984263       -1.24459041304769
C           -3.87087927556994        1.25710631107908       -1.61774059525005
C           -4.19970937101410       -0.04705281829565       -1.45191198043125
C           -3.26926937256045       -0.97047012227071       -0.89931468073319
C           -3.60587100362190       -2.31038513207181       -0.74334596168518
C           -2.70461187999006       -3.22207036099294       -0.20874528511589
C           -3.04085959086960       -4.59675842603097       -0.05893772770483
C           -2.15167504313681       -5.47713220643605        0.46418483940472
C           -0.87575271820269       -5.04300625138878        0.86797062993140
C           -0.51823327211286       -3.74027755747401        0.74136465344201
C           -1.41308324310502       -2.77417154256274        0.19985769906177
H            6.87918541163284       -5.95601060370952       -3.53708161385300
H            8.08209118278354       -3.41793674997638       -5.57205231385675
H           10.31528197935885       -3.44338701861511       -6.60240434666673
H           12.07393038641544       -4.89093583199233       -5.67751656849820
H           11.60166955839409       -6.26132757423887       -3.69020575083227
H            9.37236630708905       -6.19443501366687       -2.65735552706589
H            6.91078342197636       -6.55881478469767       -5.52397680649607
H            6.01170293739764       -7.62670956417712       -7.52562393854178
H            4.29996919069668       -6.48629068417123       -8.86481375727931
H            3.48130805871889       -4.27251410618457       -8.19196474925051
H            4.36823162523214       -3.19792546287456       -6.18000757843848
H            1.23114633550420        1.36122347563925       -2.41193474113773
H            2.05584156220727        1.78194443184488       -0.93098611360651
H            2.84168465835849        2.03127778637758       -2.46792447658364
H            2.89530441175151       -4.95496821960419       -2.20250906571517
H            3.08943706659448       -5.16339156091812       -3.93238115449259
H            2.80978505195992       -2.57004748372198       -2.67408151271158
H            3.45071863988456       -2.77742220321054       -4.26942212324766
H            6.62668118150944       -0.93779381886076       -3.73528551048531
H            5.85338358337676       -2.08571760417589       -4.80771064562960
H            5.00378339333252       -0.60901195199711       -4.35805463869062
H            4.94862612296387       -0.09353756099565       -2.04982365485585
H            3.67967402731086       -1.12052186537036       -1.53668634977243
H            6.85446417335252        0.34598293154279       -2.04310502371217
H            9.02781862890329        1.30640289262286       -1.61457882191514
H           10.26554734237076        0.74423586606011        0.43789194886008
H            9.31166248453114       -0.80600577777614        2.06297561381888
H            7.51282812395930       -2.28565547775891        2.76122002508738
H            5.76310665130004       -3.80689571742663        3.47140470900761
H            3.61705880472921       -4.89732082668278        3.07000430506322
H            2.30830836499654       -4.35539726100014        1.06186271431988
H            3.07670877033352       -2.68533721772797       -0.50616032357024
H            0.45222116265031        0.05130580723819        0.43415520961222
H            0.47891827780067       -1.31397450321735        1.51048355394059
H           -0.71451599104547        1.25985345061490       -0.44068826547885
H           -2.34833430431735        2.75782325863839       -1.39032627812856
H           -4.58537810388353        1.94588199479883       -2.03827328863147
H           -5.17496925037256       -0.40224923627130       -1.73805983625086
H           -4.58069775604779       -2.64836791187119       -1.04599052244423
H           -4.01630415919495       -4.92882142894292       -0.36990027551911
H           -2.41828768831529       -6.51604744315175        0.56993099029206
H           -0.18038431942195       -5.75603146189810        1.28029010806919
H            0.45975165719864       -3.42179341929465        1.05056665205391
97
 energy: -145.817833618577 gnorm: 0.180687470819 xtb: 6.7.1 (edcfbbe)
O            8.14068624239063       -5.16484320627404       -1.22968809417293
C            7.13177341197674       -4.68829251294473       -1.68682432061215
O            6.08478656857859       -4.18190942790556       -0.95798161238258
Ni           5.51673675111196       -3.93468625647929       -2.71413492325467
N            6.05184607216424       -4.19176180126164       -4.50612707468006
C            7.14468955058862       -4.90249787006326       -3.53944257197000
C            8.56066807953734       -4.80518158213868       -4.05349267393364
C            8.85546375674659       -4.02516012926837       -5.16333420629004
C           10.10958720971170       -4.05380911978152       -5.74353173924227
C           11.10009926101830       -4.86335803845983       -5.22203278234549
C           10.82805636757163       -5.63886150519444       -4.11131875854276
C            9.57068787961694       -5.61522703289258       -3.53743636947828
C            5.65579907776142       -4.81837971908110       -5.63971855142874
C            6.14683367566798       -6.06726753790267       -6.08135388470739
C            5.65855715658785       -6.65429245120455       -7.22549605290161
C            4.68710669770233       -6.01936101793038       -7.98223656656573
C            4.23130585188124       -4.76868407478759       -7.60096565768122
C            4.71359014922043       -4.16990770648398       -6.46228655281868
C            2.16129803454866        1.43945991452498       -1.92255260894240
N            4.84297139801505       -5.66989168219283       -2.77072802406632
C            3.60327914567388       -4.77389609881638       -3.01787942941443
C            3.71833557831949       -3.01337198641948       -3.21720070102285
N            5.13853945334958       -2.09976998339314       -2.81300532418670
C            5.66350838466697       -1.38990282288628       -3.99321155746410
C            4.75867669955042       -1.12237240720517       -1.72472604549208
C            5.48607551940811       -1.38717523881582       -0.43673308252735
C            6.75158891548051       -0.81077806742945       -0.21917306647025
C            7.36614720720543        0.08523829219822       -1.13809256520456
C            8.58902992206072        0.62899885403300       -0.90195295493030
C            9.29877174111295        0.30902326849589        0.26903520748358
C            8.76181543090990       -0.54811609154302        1.17471485158860
C            7.48141172337995       -1.12735932390883        0.96798455939850
C            6.93988265465644       -2.01475942372970        1.88986867918906
C            5.68955698866530       -2.58695100360874        1.69322848748146
C            5.17509747857084       -3.54314575132202        2.60904169419153
C            3.98639097043220       -4.15733062669687        2.38410714545501
C            3.23296410466895       -3.83361794295820        1.24192637170373
C            3.67819925031162       -2.90449083331482        0.35652802675138
C            4.93376186754059       -2.25513245701858        0.52545987594561
C            0.21577329022690       -0.97543069407693        0.54248497009544
C           -1.04787485407717       -1.41347147538439        0.06450001753579
C           -1.96989813193411       -0.50459701813142       -0.52473272885136
C           -1.68211090504186        0.86952807653196       -0.71089455671939
C           -2.60008221387350        1.72227967081895       -1.24697438119515
C           -3.87325085985741        1.26156605365094       -1.61945027531486
C           -4.19931179203301       -0.04757156939273       -1.45070799381506
C           -3.26687906650710       -0.96673296018138       -0.90350823341556
C           -3.60443925401573       -2.30991682070388       -0.74270006942098
C           -2.70232664532615       -3.22546625266602       -0.20497401627806
C           -3.04070986868552       -4.59604200169956       -0.05903255234325
C           -2.15110597079811       -5.48206473414225        0.46438933552350
C           -0.87728651964210       -5.04769652869613        0.86830476709931
C           -0.52060827017183       -3.73852248632243        0.73957846997602
C           -1.41306243624240       -2.78051945450792        0.20642989877309
H            6.88262193739159       -5.97238160328546       -3.53045689588852
H            8.07912259795921       -3.40791516088498       -5.57975098848402
H           10.31404249801564       -3.44077844483761       -6.60657373524070
H           12.07723869210093       -4.88982216598330       -5.67870255097959
H           11.59950209424683       -6.26399929814135       -3.68897049976157
H            9.37110074871375       -6.20487808119722       -2.65995549565114
H            6.91639281552667       -6.56227586079186       -5.51816888948886
H            6.01665927720655       -7.62660753899392       -7.52608066802552
H            4.29698774291164       -6.48965671987111       -8.86936207342934
H            3.48137847768784       -4.26881250024626       -8.19398686067405
H            4.36119718263387       -3.19294483372398       -6.17780890917645
H            1.21614427785833        1.33543928511925       -2.42367331360375
H            2.06408630751894        1.76811089910292       -0.90421446256105
H            2.86901139713349        2.02409505546506       -2.48113524532733
H            2.90379670698399       -4.94507699689423       -2.19036958842269
H            3.11270778268155       -5.14034372789611       -3.93308480363469
H            2.86247258217103       -2.59887840559218       -2.66136758899873
H            3.48408864838956       -2.79612491452864       -4.26522582200949
H            6.62081061838255       -0.94275214202175       -3.72762034736435
H            5.85083533739827       -2.08909062689981       -4.80455993298045
H            4.99209570258749       -0.60368891992447       -4.34934461773697
H            4.95847164539472       -0.10156074963294       -2.06164970513972
H            3.68091661968947       -1.12946783463657       -1.54238980423034
H            6.85289177215051        0.35074849420739       -2.04484776006667
H            9.02860372355536        1.30853203152793       -1.61602993925919
H           10.26996120288387        0.74621478521846        0.43823199374681
H            9.30847288483969       -0.80795285017703        2.06752096911938
H            7.51351816117811       -2.28589367384152        2.76271238091886
H            5.76651349018188       -3.80217732063690        3.47322896487512
H            3.61566550593438       -4.90095166710189        3.07208862579860
H            2.30730451483744       -4.35678484607221        1.06185221321275
H            3.07315100674909       -2.68365553195283       -0.50538337701962
H            0.46941260018345        0.06227704710957        0.41784565560222
H            0.51814532237068       -1.35191468042508        1.50772930367541
H           -0.71483988976548        1.25725305127129       -0.44012552373654
H           -2.34984138339460        2.76173392651891       -1.39115464639490
H           -4.58792868046355        1.95066867299583       -2.04004892336535
H           -5.17570841398390       -0.40726635440209       -1.73626036375997
H           -4.58261372454333       -2.64886134998701       -1.04727992160806
H           -4.01942605855210       -4.92535069319348       -0.37149123113430
H           -2.41806070709536       -6.52133395471333        0.57099948279553
H           -0.18025696011244       -5.76012945885282        1.28153605025578
H            0.45909513989426       -3.41752374189568        1.04815098484296
97
 energy: -145.873769265982 gnorm: 0.119655443372 xtb: 6.7.1 (edcfbbe)
O            8.06497475751566       -5.10835491851528       -1.21872499108169
C            7.04221648316018       -4.66429694725449       -1.62660973799791
O            6.00566958545938       -4.15932723787756       -1.01480031125714
Ni           5.52129759089824       -3.98663649474437       -2.75148001862573
N            6.02213407103749       -4.17431380246877       -4.50910948934265
C            7.10606519345889       -4.89152201463205       -3.59605031609144
C            8.54260924698444       -4.78281218202593       -4.05086554655468
C            8.85009433304016       -4.00710910435153       -5.16458964192331
C           10.10648131085219       -4.04569957638329       -5.74303909396309
C           11.09666296297182       -4.85857915797331       -5.22005468328116
C           10.81577684218906       -5.63169289376039       -4.10563940793384
C            9.55390400969139       -5.60581608787933       -3.53162922438355
C            5.63174636997659       -4.83434161180918       -5.62099300853924
C            6.13938542460953       -6.07250769789084       -6.07318744682980
C            5.65700539800377       -6.65289534943796       -7.22590756174109
C            4.68409521752573       -6.02238546981829       -7.98748403894838
C            4.22877073979836       -4.77025288791509       -7.60426975286365
C            4.70459755963959       -4.17591558053603       -6.45824851460719
C            2.14425356069948        1.47977550528622       -1.92493876076414
N            4.86267039374873       -5.66171495887967       -2.77385734194320
C            3.65133450985605       -4.81115832250725       -2.99723358695001
C            3.80065915786102       -3.01917064786135       -3.19939181068513
N            5.18646944488424       -2.12067751376636       -2.80907679147102
C            5.66195648475203       -1.39077585079696       -3.98729865579573
C            4.77243228717886       -1.13770207966437       -1.73977624198010
C            5.49219460758501       -1.39260547478949       -0.43749053623737
C            6.75329381422984       -0.81151684402670       -0.22132032024179
C            7.36696503031270        0.08432662895357       -1.13707539892553
C            8.59138955257648        0.62881483021805       -0.90090619469991
C            9.30316822633495        0.30863798291291        0.27074100133824
C            8.76135787529159       -0.54938079497574        1.17580055767164
C            7.48252039903064       -1.12684087145590        0.96852113461798
C            6.93901466909005       -2.01492073426272        1.88852370015588
C            5.68949531348307       -2.58962147765246        1.69135404966233
C            5.17663812909521       -3.54224493263973        2.60847510721268
C            3.98736830494248       -4.16047193439126        2.38664161621205
C            3.23612103328642       -3.83660770790692        1.24197655384915
C            3.68241494846765       -2.90658859429571        0.35528286234068
C            4.93602401560671       -2.26013724047271        0.52022899638452
C            0.15004696529669       -0.94770175187929        0.58558016613525
C           -1.03979705875502       -1.40169501587304        0.08352811231672
C           -1.96712631293756       -0.49702897794471       -0.54700871850480
C           -1.68457118496986        0.86568544632613       -0.72025386606247
C           -2.60667460713259        1.72708021614459       -1.25327069981278
C           -3.87631803331084        1.26717011267583       -1.62272790857583
C           -4.19780503881931       -0.04835031042359       -1.45255635504382
C           -3.26257071780163       -0.96303844415894       -0.91360314425241
C           -3.60214617718113       -2.30908618724605       -0.74354675233414
C           -2.69944032277260       -3.22799067932287       -0.20063317667699
C           -3.03984870766616       -4.59405933857736       -0.05875877284133
C           -2.15018118029248       -5.48721952200431        0.46571829523171
C           -0.88007448681467       -5.05428402178075        0.86809689031948
C           -0.52546981920022       -3.73638480384740        0.73956801912563
C           -1.41481362457030       -2.78610972084114        0.22041458006252
H            6.88161695767965       -5.96823381717709       -3.53749758672213
H            8.07569156674722       -3.39222465197782       -5.59136252792983
H           10.31193342106684       -3.43837725394341       -6.61163346056435
H           12.07549867520035       -4.88983107582515       -5.67708878851665
H           11.58630898586401       -6.26450070273841       -3.68653590954576
H            9.36101296151545       -6.21248048109767       -2.66385413414702
H            6.91853092214784       -6.56687801752131       -5.51721646154668
H            6.02490360343012       -7.62259688638349       -7.52892215858473
H            4.29482900824026       -6.49316005097111       -8.87585841712098
H            3.48374455878039       -4.26314988970598       -8.20035598581765
H            4.35316995488777       -3.19338592340752       -6.17886160077951
H            1.20777583180951        1.31203366938800       -2.43090813174341
H            2.07321733368302        1.75355723341666       -0.88565501778179
H            2.88935468179877        2.01408273002913       -2.49018197071502
H            2.93002113734104       -4.93295200053465       -2.17808810317842
H            3.14961248123251       -5.11674938397850       -3.93142620792287
H            2.93553417156528       -2.62782564203400       -2.63858031168925
H            3.54741943328439       -2.82013390200376       -4.24723561945435
H            6.62088334634923       -0.94007056372035       -3.72341198898045
H            5.85019437026780       -2.08580253049499       -4.80503356717551
H            4.97906113379804       -0.60406623973770       -4.33134781099781
H            4.97381682335808       -0.11712186934843       -2.07739330598847
H            3.69295671418598       -1.14511173423234       -1.55697883943966
H            6.85389982194328        0.35808718557717       -2.04495796818050
H            9.02940131016490        1.31055692523205       -1.61596669394092
H           10.27465806011475        0.74772396431750        0.43887263451472
H            9.30421552460911       -0.80937677060163        2.07302281819895
H            7.51333191873792       -2.28505367670973        2.76442571732489
H            5.76953862408035       -3.79512188766878        3.47584022153615
H            3.61419454612138       -4.90459671795824        3.07428095843141
H            2.30723414029896       -4.35781033103920        1.06253596981335
H            3.06792111782064       -2.68328376239611       -0.50197633434051
H            0.48376283562191        0.06643382419661        0.41253677752019
H            0.57561095237729       -1.40123112261608        1.48755555869619
H           -0.71882819613639        1.25713311870801       -0.44313478529834
H           -2.35385950679734        2.76742937148438       -1.39114746153664
H           -4.59261907827821        1.95638357623459       -2.04141635847424
H           -5.17596441091686       -0.41249814749259       -1.73349258913624
H           -4.58365131037695       -2.64827145711773       -1.04640191109212
H           -4.02106484300514       -4.92040389321816       -0.37388350054946
H           -2.41775650459855       -6.52714417546052        0.57163910138751
H           -0.18035059394014       -5.76555501082056        1.28117950770613
H            0.45694289755406       -3.41562897931864        1.04564435869711
97
 energy: -145.920045628828 gnorm: 0.136294575291 xtb: 6.7.1 (edcfbbe)
O            7.96931545726119       -5.06051795418382       -1.20119722459841
C            6.94191495630986       -4.58229450780246       -1.53064122498687
O            5.90118076375053       -4.14171486667248       -1.02675046613433
Ni           5.53566042336461       -4.02228163596898       -2.78680531379423
N            6.02038819596757       -4.16647327377732       -4.53225288207440
C            7.06484190542870       -4.87515974156763       -3.66701029261237
C            8.52072985866221       -4.75360970038335       -4.04952099394042
C            8.84452394851626       -3.98286460073546       -5.16578448865151
C           10.10198283944461       -4.03473938497356       -5.74212471585260
C           11.08826863433570       -4.85164841498387       -5.21529150733266
C           10.79488164886171       -5.62138695758639       -4.09890094604467
C            9.52957843134618       -5.58901469848032       -3.52641476564177
C            5.60406053301161       -4.85287644224265       -5.61805485020733
C            6.12616452723114       -6.07982637416043       -6.06998724361842
C            5.65119941463254       -6.65404692879093       -7.22949061292788
C            4.67900395072577       -6.02665478769889       -7.99470409754413
C            4.22085774995740       -4.77445914645486       -7.61122838541408
C            4.68659719479375       -4.18648944425043       -6.45785602231574
C            2.12999440298849        1.51395917583560       -1.92700543128110
N            4.88372127479594       -5.68800668842774       -2.78710332273638
C            3.71474719491807       -4.86622353065251       -2.97084980024343
C            3.89679836752558       -3.02488207116838       -3.18372879952917
N            5.22600437428063       -2.14036022984452       -2.81335765113076
C            5.66741803807822       -1.39183186889289       -3.98558987020428
C            4.79275597583182       -1.15589534208263       -1.75234812120890
C            5.50045823370908       -1.39894681832955       -0.43798892497388
C            6.75725118079133       -0.81286441287632       -0.22268845334905
C            7.36962641286045        0.08435541638971       -1.13572610263723
C            8.59490582756091        0.62863238890137       -0.89883891175648
C            9.30789607499586        0.30779653041621        0.27301751088797
C            8.76232831718316       -0.54983222696534        1.17789695326564
C            7.48486939957570       -1.12649176563095        0.96983974487511
C            6.93917799468642       -2.01519299330613        1.88798945293577
C            5.69029314194512       -2.59209812447020        1.69053422664861
C            5.17820143300279       -3.54197208966792        2.60889332010906
C            3.98934132661522       -4.16419644175717        2.38867112251136
C            3.23951208164898       -3.84013228835604        1.24247720342273
C            3.68541836849489       -2.90882222800313        0.35522857820427
C            4.93861346321695       -2.26448851682688        0.51667140963594
C            0.10632873103847       -0.92178319602060        0.63351816400492
C           -1.02908760047329       -1.39293644859864        0.09490263804388
C           -1.96459697767202       -0.49124873590054       -0.56885986170698
C           -1.68699048530933        0.86304270173195       -0.73236170492239
C           -2.61396737784653        1.73240909334754       -1.26117294617851
C           -3.87952476264922        1.27245304996255       -1.62711316223321
C           -4.19606784130911       -0.04901916217623       -1.45704497576840
C           -3.25841787817183       -0.96073823835465       -0.92566714908243
C           -3.60042595310838       -2.30844275133316       -0.74530945649587
C           -2.69824950558297       -3.22929100741283       -0.19609495318679
C           -3.03929999526276       -4.59221292818790       -0.05806337162440
C           -2.14965483911906       -5.49197770006852        0.46709092355494
C           -0.88330722931240       -5.06185879931192        0.86783282443387
C           -0.53110236830876       -3.73589730302366        0.74116426975211
C           -1.41722024521662       -2.79122532042811        0.23301807245028
H            6.87379227139693       -5.95970259946317       -3.55590945052253
H            8.07306890303978       -3.37116916768023       -5.60462031660123
H           10.30972326804722       -3.43512568073474       -6.61657983670541
H           12.06872696891996       -4.89031637400815       -5.67147531829514
H           11.56290602576986       -6.26237886217669       -3.68232151796676
H            9.34143893507361       -6.21448110250951       -2.66909110944421
H            6.91475616558615       -6.57043130512565       -5.51947826828544
H            6.03279550103360       -7.61865287964467       -7.53478743285595
H            4.29375894022820       -6.49713112618363       -8.88516086638050
H            3.48490258458286       -4.25852816565689       -8.21172790212574
H            4.34166618753662       -3.19819071936577       -6.18225174250506
H            1.20477578589784        1.29184531483391       -2.43415958982918
H            2.08217385614376        1.73929970863541       -0.87407635106833
H            2.90358883047501        2.00311895264558       -2.49597625944108
H            2.96896791642111       -4.93092663204644       -2.15917784550005
H            3.19385736328300       -5.09425722268126       -3.92565355351560
H            3.02614931186878       -2.66473287696862       -2.61323434420834
H            3.62334090930901       -2.84897089513516       -4.23157327304764
H            6.62379832352513       -0.93305579825208       -3.72446483343076
H            5.85317407487569       -2.07835334037344       -4.81198573928141
H            4.96726393432221       -0.60942122381977       -4.31051983665947
H            4.99473446598534       -0.13723219765769       -2.09323800437319
H            3.71186660921833       -1.16483484187321       -1.57526571665370
H            6.85675719829188        0.36650518799304       -2.04296334750747
H            9.03074664898461        1.31249268593159       -1.61414715321913
H           10.27927801517441        0.74842377283145        0.44028262460330
H            9.30028541938090       -0.80982389679828        2.07913656962732
H            7.51279756743095       -2.28395285858576        2.76611311041361
H            5.77181106799272       -3.78716930222474        3.47914801425912
H            3.61365673844164       -4.90767528632211        3.07628958457726
H            2.30807462172684       -4.35845954447058        1.06384266853581
H            3.06200633794799       -2.68256609199033       -0.49624605683149
H            0.49096621357611        0.06779596381149        0.42619420559003
H            0.62082114004620       -1.43788767038021        1.46301894363070
H           -0.72372580557555        1.25851836500813       -0.44951256024669