69
 energy: -114.737149608395 gnorm: 0.307980374503 xtb: 6.7.1 (edcfbbe)
O           -4.41157570636271       -4.45851255205076       -8.75208428860479
C           -4.11718880512412       -4.68095102434037       -7.57732924535850
O           -4.36350535947313       -3.92421560199880       -6.56147716318113
Ni          -2.84559941603952       -4.10703221726235       -5.28637672982333
N           -2.65029583944203       -5.94453973631640       -6.07197267855791
C           -3.43148235237164       -6.00391221979991       -7.28597909668540
C           -4.41943891614165       -7.14535173070125       -7.29149059238264
C           -4.18156325862051       -8.28767671921324       -6.54879875546141
C           -5.04848523214775       -9.35630697042379       -6.60085918086386
C           -6.16427187984405       -9.29767959397691       -7.40595404129002
C           -6.40815298102537       -8.17014523566280       -8.15901445970306
C           -5.53746220369671       -7.10491959655961       -8.10511612106934
C           -1.36352318983800       -6.46106135283619       -6.03793508633011
C           -0.99563828801831       -7.42704179401561       -5.08453959801788
C            0.23363176912510       -8.03160330160496       -5.14519334321393
C            1.13911810548472       -7.67704440199740       -6.13112072925261
C            0.80973763458953       -6.70486156311973       -7.05769774983669
C           -0.42048157916016       -6.10339071372045       -7.01988187776675
C            1.01196326958726       -5.51777276521349       -3.19838808047518
C            0.83856167773832       -4.05422905385929       -3.11857532839467
C            1.86618051464835       -3.26817890447513       -2.75381877117135
C            1.73878531842974       -1.83962574791918       -2.67297126743392
C            2.85290757924855       -1.02757910108447       -2.45754497598066
C            2.73337744989376        0.33969233259727       -2.45000675635299
C            1.49941376570930        0.93156406791952       -2.66795377958076
C            0.38683333883746        0.15310014639273       -2.86018175843035
C            0.47106011180874       -1.24403573389638       -2.83192578145310
C           -0.72315104236873       -2.08015950252059       -2.97390847202047
C           -2.00223719504190       -1.61878915703376       -2.56279218716360
C           -3.18943507387213       -1.88172915283498       -3.38453968850740
O           -3.08054305343676       -2.25855310794664       -4.59482267216941
O           -1.35880210049794       -4.21856130361183       -3.96734165173864
C           -0.47942795598981       -3.48144223861028       -3.40618739638298
C           -4.52333663707772       -1.61834889179992       -2.86117117685140
C           -5.68878126383475       -2.12156059682997       -3.62713391125897
C           -4.66293856206295       -0.89402518065672       -1.73949579474971
C           -3.52627122418268       -0.43082788134475       -0.98477553659659
C           -3.71616806910149        0.34985773166174        0.15734048645348
C           -2.65707686199915        0.71305606042484        0.95003312820022
C           -1.38274483174801        0.27427954691116        0.63676695071730
C           -1.17344835154063       -0.49277663417696       -0.47990608958535
C           -2.21811385547451       -0.82655490078080       -1.35057029788929
H           -2.73163097700450       -6.18443972444313       -8.11048392436170
H           -3.30388488931396       -8.33143524832224       -5.93206150422737
H           -4.85179657884627      -10.23872732306119       -6.01582563703828
H           -6.84051061527317      -10.13458934881442       -7.45039401520671
H           -7.27575469159946       -8.12696472980283       -8.79454099582729
H           -5.71243165123318       -6.22598955742789       -8.70076741356775
H           -1.69938039569637       -7.68915630890473       -4.31454738433258
H            0.50148072121390       -8.78306106205222       -4.42090987898726
H            2.10308948206883       -8.15630943623906       -6.17431379609284
H            1.52194612686355       -6.41981715291069       -7.81383336446032
H           -0.67410057929859       -5.33054964851664       -7.72357182761736
H            1.14909144044609       -5.95068080895539       -2.20750455027739
H            0.12606433085582       -5.96917029688521       -3.64045390355280
H            1.87635486307500       -5.78215517191156       -3.81058935656307
H            2.82257082658112       -3.71190333798586       -2.54187385743358
H            3.81518039470124       -1.48788864044134       -2.31084220050417
H            3.60185674723652        0.95523133880754       -2.28399047770155
H            1.41288159189610        2.00535012390375       -2.67809857912473
H           -0.57124085370725        0.61219117135736       -3.03247346693947
H           -6.38933382760877       -1.31739055033056       -3.85594492904413
H           -5.35900934698442       -2.56028203747090       -4.57131627837537
H           -6.21832158897865       -2.89278496118451       -3.06665096307040
H           -5.65037057486924       -0.66638538813236       -1.38014054536004
H           -4.71327082658375        0.66133500916391        0.41653547026457
H           -2.81811827700861        1.32261344810891        1.82376003317971
H           -0.55380204754181        0.53507171452091        1.27368399158775
H           -0.18263425311276       -0.85542678036280       -0.68271910049820
69
 energy: -114.821136404349 gnorm: 0.126398768612 xtb: 6.7.1 (edcfbbe)
O           -4.41890417966759       -4.42914372597341       -8.70564338619935
C           -4.10760643028395       -4.67320017041570       -7.54816445708227
O           -4.25189810478792       -3.92884132396780       -6.50597307597157
Ni          -2.83066375776858       -4.10239586336773       -5.27180346711726
N           -2.64720979528404       -5.86552180547755       -6.02776978303856
C           -3.40094785043604       -6.00368536073480       -7.26834594909603
C           -4.41581462289011       -7.13916904797542       -7.28184386728348
C           -4.17811189621902       -8.28603377549041       -6.54053104738290
C           -5.04748401521407       -9.35787681422386       -6.59860050056461
C           -6.16643669692254       -9.30084800856512       -7.40594706234136
C           -6.40758642556401       -8.16910584540797       -8.16097752690161
C           -5.53567786618706       -7.09859864271594       -8.10372107907572
C           -1.37404943344580       -6.43692161731765       -6.03445478465362
C           -1.00628926258082       -7.41291529282521       -5.08600648519023
C            0.22766926132614       -8.02952880279463       -5.14912703759323
C            1.13949639107924       -7.67888171133838       -6.13184187406075
C            0.80907981857278       -6.70416757855208       -7.05824465326102
C           -0.42818065159163       -6.10145027851182       -7.02265975845900
C            1.00035623287714       -5.52092763862173       -3.20292828844410
C            0.80655185389279       -4.04768607366548       -3.11865685839224
C            1.84789157773886       -3.26216173355793       -2.74980751937048
C            1.73545091349624       -1.84125217726086       -2.67609032052345
C            2.85392024660430       -1.02956660173617       -2.46147561747547
C            2.73573405567742        0.33997754463087       -2.44890606287329
C            1.49628769813176        0.93059071735017       -2.67052281949813
C            0.38072710523535        0.14882173982520       -2.86020733133858
C            0.46140034721359       -1.25351782428206       -2.82461436459003
C           -0.72163973665792       -2.08670225544420       -2.98310955281249
C           -2.00881960391405       -1.61880408739175       -2.57971010806754
C           -3.18245180957511       -1.92704490032956       -3.39830427740309
O           -3.06378896458358       -2.35590566824598       -4.59723169166958
O           -1.40116641277685       -4.19986381899263       -4.02818513099419
C           -0.51517056351646       -3.47796436664082       -3.44178799155530
C           -4.51145214657028       -1.62274123420065       -2.87417874445478
C           -5.68891161940591       -2.12517250623104       -3.63579136753149
C           -4.65182090533739       -0.89195102243019       -1.74527917542330
C           -3.52428438949843       -0.43556504954724       -0.99132803490006
C           -3.71708803254668        0.34697399771131        0.15433974114411
C           -2.65911764093652        0.71625583954989        0.94913695487672
C           -1.38165045484147        0.27078143918070        0.63536058859980
C           -1.17235265770841       -0.50112547219075       -0.48254122477229
C           -2.21533171529975       -0.83199061563405       -1.36629709375242
H           -2.72314591340341       -6.19161113247636       -8.11717462303146
H           -3.29888290428107       -8.33519776326991       -5.92392185886504
H           -4.84934419386231      -10.24193278524892       -6.01368661332484
H           -6.84432501424894      -10.13839506649835       -7.45083551547723
H           -7.27672916413472       -8.12407220209963       -8.79774414076933
H           -5.71494087269603       -6.22330533823231       -8.70489769672696
H           -1.70854578380997       -7.68315722585791       -4.31378148699795
H            0.49539165127368       -8.78194929380324       -4.42157494504597
H            2.10459282095874       -8.15894503783971       -6.17355201994910
H            1.52352453946131       -6.41841049914196       -7.81484010555866
H           -0.67512467953296       -5.32496537508710       -7.72870134824986
H            1.14742994997276       -5.94660889101264       -2.20902520920691
H            0.12060772071573       -5.97611659966293       -3.64257542936893
H            1.87057627494609       -5.77925408261241       -3.80857018702004
H            2.81271252447634       -3.70848480298702       -2.54592500152398
H            3.81718031352651       -1.49167233285695       -2.31175152746370
H            3.60474144285723        0.95674397822211       -2.28232307474604
H            1.41063171531286        2.00592914564826       -2.68190629474321
H           -0.57676896453516        0.61192225063709       -3.03422454521688
H           -6.38830248839831       -1.31866242297953       -3.85464714549884
H           -5.36093995197202       -2.56506988500214       -4.57716476331453
H           -6.21775994024679       -2.88964928450509       -3.06550851450881
H           -5.64287195304754       -0.66216437542506       -1.37918425370236
H           -4.71689252720423        0.65883157208098        0.41357539158242
H           -2.82001622990850        1.32594390266847        1.82450724971495
H           -0.55145959721279        0.53215457932487        1.27325457839758
H           -0.17864263499553       -0.85983460075205       -0.68060883423629
69
 energy: -114.842922770537 gnorm: 0.027883459309 xtb: 6.7.1 (edcfbbe)
O           -4.45265104293579       -4.39090119442557       -8.64587039169467
C           -4.07085527856969       -4.63989267894445       -7.51895838989958
O           -4.16216178590354       -3.92713813732819       -6.45133969118523
Ni          -2.80325229359766       -4.10129536057224       -5.25301295956180
N           -2.62947942309063       -5.80940903554987       -6.00011308911978
C           -3.37687275698398       -5.99704380016013       -7.24616806018343
C           -4.40921039658899       -7.12980548241687       -7.26456596334195
C           -4.17407777393367       -8.28160527058673       -6.52575268968527
C           -5.04474743725121       -9.35590720865084       -6.59308786740147
C           -6.16358864960894       -9.29920689618526       -7.40388745461637
C           -6.39906696089329       -8.16280330376381       -8.15801454732604
C           -5.52670669624881       -7.08892994725745       -8.09526650013541
C           -1.36876777386007       -6.42056709819016       -6.03149982826102
C           -1.01258471904248       -7.40035235962333       -5.08985170755591
C            0.21919525474666       -8.02905885261441       -5.15538412058671
C            1.13662670246576       -7.68220340557462       -6.13353757688625
C            0.80811215723219       -6.70539027535587       -7.05996096711058
C           -0.42800451304761       -6.09566687256393       -7.02135178556060
C            0.97862232198388       -5.52112118823152       -3.20781473937028
C            0.77439646349697       -4.04056663043565       -3.12760447779611
C            1.82126016259279       -3.25872460605521       -2.75316211071728
C            1.72609069620797       -1.84406675669274       -2.68311245711806
C            2.84884877262720       -1.03409099043238       -2.46566258976390
C            2.73243580289962        0.33589822788400       -2.44953309918556
C            1.48795010718832        0.92453925384580       -2.67320725313039
C            0.37029642204220        0.14363149967211       -2.86168756074974
C            0.44756350616787       -1.26208487018637       -2.82964530657321
C           -0.72414076416241       -2.09093644149133       -3.00476545597104
C           -2.01629632254332       -1.62069174082592       -2.59488410489656
C           -3.17716573158667       -1.95725861786897       -3.39968705470136
O           -3.05424489944643       -2.42221761605074       -4.58662593215130
O           -1.41445122798412       -4.20291888704791       -4.05867378372078
C           -0.53823162458410       -3.47140761476552       -3.46952877993893
C           -4.49886232818679       -1.62945600722564       -2.88808896784400
C           -5.68740414698795       -2.12869359724468       -3.64727739549886
C           -4.63729512391403       -0.89439319316700       -1.75663694838874
C           -3.51899481593991       -0.44356980678958       -1.00241368788184
C           -3.71575863894172        0.34154958474040        0.14500393228492
C           -2.66123798925644        0.71582752157543        0.94160893451058
C           -1.38223614648444        0.26210388158892        0.62823255234223
C           -1.17071132858176       -0.51419157742730       -0.48741350293106
C           -2.20998865557087       -0.84336676212291       -1.38182876288651
H           -2.70896124461427       -6.20285675454932       -8.10059623666397
H           -3.29409117160247       -8.33928918731859       -5.90846676402804
H           -4.84453235861113      -10.24375119162095       -6.01190855586046
H           -6.84312989347234      -10.13743357000085       -7.45297921754711
H           -7.26680803226844       -8.11542031825075       -8.79996300931796
H           -5.71086847003536       -6.21835193090993       -8.70421247922075
H           -1.71531538173451       -7.66977745351562       -4.31446411417631
H            0.48058544862075       -8.78216429692679       -4.42501509460420
H            2.10279477495251       -8.16227811012268       -6.17131830074727
H            1.52329468410652       -6.41753541664660       -7.81639891320540
H           -0.67172621750741       -5.31908041815236       -7.73285186812378
H            1.13770067140249       -5.93524054484920       -2.21026667951649
H            0.10488210001705       -5.98629100211144       -3.64426650442793
H            1.85328670480984       -5.77096389386235       -3.80870702277457
H            2.78477976929103       -3.71157151554308       -2.54724444746886
H            3.81275648068522       -1.49906574076515       -2.31605671565352
H            3.60159659826417        0.95422211255896       -2.28054078609416
H            1.40434891866262        2.00093740509805       -2.69065130431218
H           -0.58562096814812        0.61162352486493       -3.03805814005643
H           -6.38538900178158       -1.31918461883439       -3.85486292399212
H           -5.36663622472549       -2.57123543200475       -4.58802747737014
H           -6.21503742888635       -2.88638985117571       -3.06686228070396
H           -5.62877851334379       -0.65572096153182       -1.39058552285017
H           -4.71872303243806        0.65109493537043        0.40273385431531
H           -2.82172901574285        1.32870537958008        1.81646902478715
H           -0.55151264740861        0.52130214748601        1.26829633945644
H           -0.17416367256505       -0.87366018432737       -0.67372271899539
69
 energy: -114.846990363559 gnorm: 0.017604002833 xtb: 6.7.1 (edcfbbe)
O           -4.46297459438318       -4.35171516221410       -8.60261167017122
C           -4.07923149555644       -4.62336511658001       -7.48827281601224
O           -4.13322984911535       -3.90342046008475       -6.42769737712532
Ni          -2.78498945779692       -4.10073347229905       -5.23966517941194
N           -2.60595631236041       -5.79564465488556       -5.98914312473236
C           -3.36362423982158       -5.98202714728792       -7.22366146886731
C           -4.39623638483812       -7.11452349815468       -7.23764312348364
C           -4.16526879561639       -8.26940471713183       -6.50051971015615
C           -5.03479498520757       -9.34501330051556       -6.58026361712141
C           -6.14891430752998       -9.28651992998343       -7.39809580485901
C           -6.37850875574146       -8.14609095197302       -8.14863165964884
C           -5.50785893851268       -7.07118256719269       -8.07536278893035
C           -1.34894869853383       -6.40696431678867       -6.02568176536870
C           -1.00853527620603       -7.39022156462078       -5.08956557163924
C            0.21478904090341       -8.03346046726460       -5.16067814934490
C            1.13535191179621       -7.69013841831357       -6.13686947719338
C            0.81582137121699       -6.70693150654440       -7.06084584496601
C           -0.41379033312788       -6.08470035411453       -7.01813288348037
C            0.94956153445010       -5.52341340771113       -3.20900792274802
C            0.75545469963101       -4.04131757635610       -3.13581657489489
C            1.80120215992857       -3.26198978702582       -2.75958475455809
C            1.71273042114919       -1.84825969670922       -2.69722461207032
C            2.83580960075179       -1.04037740266728       -2.47492622492825
C            2.71885555301571        0.32899985120618       -2.45619153531570
C            1.47310053980368        0.91708352180936       -2.68313694914531
C            0.35534471243812        0.13877740489552       -2.87433822981893
C            0.43427128738501       -1.26697456880566       -2.84775472614885
C           -0.73073028422345       -2.09582642879956       -3.02520119612960
C           -2.02023181886293       -1.63009945826527       -2.60006688718314
C           -3.17693478173109       -1.97061653237273       -3.39132292909510
O           -3.05024416931147       -2.43483869831770       -4.57252769108289
O           -1.40696662289456       -4.22633467013250       -4.05133350205840
C           -0.54461541945337       -3.47156098030376       -3.47981245693668
C           -4.49629771225638       -1.63547890644861       -2.89925864642434
C           -5.68648184219995       -2.13119091507092       -3.66091612626015
C           -4.63078941926723       -0.89473450445677       -1.77172771702282
C           -3.51326894365346       -0.45308554269888       -1.01507317335818
C           -3.71202294066673        0.33552801956200        0.12910452046247
C           -2.65950082764263        0.71035549007926        0.92646123890947
C           -1.38152460388219        0.24381203807670        0.62058052328654
C           -1.16770034313149       -0.53861477871627       -0.48912330805813
C           -2.20485609217996       -0.85984367338063       -1.38892115761575
H           -2.69421117519546       -6.19690787950666       -8.07449285640489
H           -3.28936458507477       -8.33374084089700       -5.87679435377336
H           -4.83431672130297      -10.23749171414125       -6.00518857078210
H           -6.82787546721554      -10.12551618223724       -7.45687172713621
H           -7.23981425425067       -8.09613436824688       -8.79983767982636
H           -5.69102359128881       -6.20158851548036       -8.68690268963129
H           -1.71583634129334       -7.65062778921364       -4.31449436003483
H            0.46357226673364       -8.79334580350996       -4.43365692944806
H            2.09806834847883       -8.17692548710861       -6.17412916393770
H            1.53099298867157       -6.42270920333203       -7.81861751845663
H           -0.65509137753957       -5.30806558735993       -7.73187478627553
H            1.11406212638297       -5.92578393733232       -2.20818993827082
H            0.07352863649400       -5.99245168311735       -3.63790571747983
H            1.82063973383599       -5.77284403061575       -3.81323475168028
H            2.75744523843724       -3.72113382565375       -2.54297521545849
H            3.79841247312964       -1.50863356267761       -2.32434862538855
H            3.58688078298067        0.94787720090827       -2.28174533731798
H            1.39020888811547        1.99339868921304       -2.70451992377623
H           -0.60055779261819        0.60811075373161       -3.05021696079558
H           -6.38067222899930       -1.31801949713022       -3.86447878105923
H           -5.37223391835445       -2.57758070837449       -4.60221010531166
H           -6.21483809068713       -2.88424879833676       -3.07546658063543
H           -5.61986906892183       -0.63999001052080       -1.41258642351037
H           -4.71687336458018        0.64454455428538        0.38091080295111
H           -2.81957653529298        1.33102171947238        1.79605013837435
H           -0.55166876581269        0.49726486239531        1.26393245558167
H           -0.17189879171919       -0.90918054924044       -0.66225233113833
69
 energy: -114.849078869768 gnorm: 0.013104059568 xtb: 6.7.1 (edcfbbe)
O           -4.50977231254599       -4.32700249765726       -8.56308571745021
C           -4.05974757332216       -4.59216439579484       -7.46890755189617
O           -4.11674452863564       -3.88511255527929       -6.41255941701683
Ni          -2.77192817067498       -4.10074891777705       -5.22735341934761
N           -2.57848968815525       -5.78564585148109       -5.98714593411829
C           -3.34560800159555       -5.96227139770529       -7.20832767824936
C           -4.37863459081432       -7.09252768872865       -7.20758352576351
C           -4.15427576794506       -8.24754204992482       -6.46757385272384
C           -5.02114278781440       -9.32462480068393       -6.56049300226409
C           -6.12718890510411       -9.26624395727137       -7.38956642194518
C           -6.35130474938328       -8.12261503619814       -8.13672764757225
C           -5.48270239380948       -7.04740737036980       -8.05291535354175
C           -1.32488407940902       -6.39596061777290       -6.02578323310079
C           -1.00218370252854       -7.38367460028754       -5.09283663058954
C            0.21159484005334       -8.04368583391564       -5.16799475103712
C            1.13595040152162       -7.70536557010286       -6.14187732970419
C            0.83099445598762       -6.71236063767146       -7.06138470867981
C           -0.39089295858347       -6.07482206442944       -7.01765293941874
C            0.91825209111540       -5.52925533902134       -3.20263220133032
C            0.73768880576842       -4.04612478865987       -3.13869787729099
C            1.78322828795731       -3.26801085083180       -2.76365212259373
C            1.69733218916913       -1.85433637626729       -2.71242392690725
C            2.81902179696541       -1.04637990369766       -2.48798615385579
C            2.69894897061502        0.32206912642725       -2.46850368865658
C            1.45196606659352        0.90846282855011       -2.69858809567217
C            0.33511297817678        0.13131336564062       -2.89073652844441
C            0.41860335050098       -1.27392899186453       -2.86580291466701
C           -0.74036944625300       -2.10450265155515       -3.04023212295490
C           -2.02637343778813       -1.64180879181328       -2.60021591735123
C           -3.18057778097592       -1.97764908682852       -3.38158194952232
O           -3.04804663472869       -2.44192031710947       -4.55772146002622
O           -1.40383402101913       -4.25730245428384       -4.03531594033880
C           -0.55320266031155       -3.47729571795490       -3.48154248720892
C           -4.49953516594571       -1.63674131159824       -2.90978268980172
C           -5.68751671276052       -2.13036015090506       -3.67633265374654
C           -4.62899366130243       -0.88714920421612       -1.78815603134922
C           -3.50899403058997       -0.46024203625768       -1.02732011780730
C           -3.70665881560788        0.33273264127383        0.11271378999029
C           -2.65427771403249        0.70294136456293        0.91091807909217
C           -1.37922958047943        0.21747322362620        0.61570918158418
C           -1.16500202848011       -0.57223601155738       -0.48732260119181
C           -2.20177575032069       -0.87896874577667       -1.39170456643951
H           -2.67761332914679       -6.18788955992042       -8.05703037130461
H           -3.28557599212107       -8.31701448136427       -5.83353248534575
H           -4.82141965886415      -10.22054839176497       -5.98988790209462
H           -6.80306087156559      -10.10699239967378       -7.46096390398674
H           -7.20442509549428       -8.06987315357077       -8.79846083245501
H           -5.66337795077220       -6.17785552787586       -8.66538091589347
H           -1.71518657942137       -7.62930471864852       -4.31789573962060
H            0.44438401145035       -8.81327291537637       -4.44628072721337
H            2.09193552134034       -8.20494276514108       -6.18105901481580
H            1.54885629126142       -6.43348488306946       -7.81847657947654
H           -0.62472982723200       -5.29271867355495       -7.72829610577612
H            1.09084053053473       -5.92022177557271       -2.19967307484435
H            0.03366577822941       -5.99673014972186       -3.61580700467265
H            1.77825929642099       -5.78553785844123       -3.81813170697765
H            2.73311438274520       -3.73252281819803       -2.53800427200055
H            3.78014387497810       -1.51710316507528       -2.33607347037368
H            3.56445909627057        0.94274695352557       -2.28887992830172
H            1.36829649522825        1.98453378395468       -2.72260550278206
H           -0.62126512748767        0.59953100496348       -3.06891029948493
H           -6.37784286617192       -1.31456938495767       -3.87980954222564
H           -5.37460399330802       -2.57893157093878       -4.61711230837161
H           -6.21682171100295       -2.88135290517402       -3.08949424273998
H           -5.61474425647727       -0.61138384628215       -1.43765991848496
H           -4.71223075648666        0.64608520209042        0.35549250871663
H           -2.81172867818046        1.33392994465958        1.77318117988051
H           -0.55040593771148        0.46124523795871        1.26382440968306
H           -0.17237523060139       -0.95958616225325       -0.64895213944361
69
 energy: -114.850043768176 gnorm: 0.008147290967 xtb: 6.7.1 (edcfbbe)
O           -4.52076170541580       -4.31511844540794       -8.55079364563460
C           -4.07461107956484       -4.58822315090315       -7.46307880768886
O           -4.10458082968830       -3.86524180887474       -6.41727826692622
Ni          -2.76681024729935       -4.09680259469901       -5.22414487103210
N           -2.56065495765109       -5.77592708873327       -5.99285242025917
C           -3.33225861003398       -5.94891823665673       -7.20716423022442
C           -4.36188621501335       -7.07837124394483       -7.19458412845933
C           -4.14332977690786       -8.22719959656899       -6.44422796066296
C           -5.00861968229484       -9.30453286113531       -6.54136307521108
C           -6.10747174115868       -9.25007325868716       -7.38051716821943
C           -6.32982140676380       -8.10737997499627       -8.12896395634929
C           -5.46199081390613       -7.03305963545437       -8.04271063306523
C           -1.30814863242535       -6.38786671450411       -6.03029383859051
C           -0.99648067484692       -7.38030059525014       -5.09798615672649
C            0.20943150190811       -8.05480967673418       -5.17507730368642
C            1.13691044826526       -7.72310726070529       -6.14779084391515
C            0.84591579608898       -6.72072145399957       -7.06189666592012
C           -0.36951728094379       -6.06973401111920       -7.01902037733265
C            0.89917919363118       -5.53842484110382       -3.18837241852118
C            0.72810414359879       -4.05409762998592       -3.13363395650551
C            1.77501803984183       -3.27465026961569       -2.76364763206188
C            1.68694857038135       -1.86067830874647       -2.72144149160275
C            2.80613594778649       -1.04901778876739       -2.49996440481869
C            2.68109144311996        0.31876788786717       -2.48260402270359
C            1.43263587401597        0.90203474881339       -2.71360014935115
C            0.31775869997007        0.12258263379000       -2.90329876382598
C            0.40711181811471       -1.28204016519645       -2.87448062284558
C           -0.74906727577978       -2.11461006700387       -3.04184711101599
C           -2.03318309094565       -1.65056965411416       -2.59567836241850
C           -3.18651410095215       -1.97715686355838       -3.37674677294963
O           -3.04741944332727       -2.44141471820384       -4.55176401715876
O           -1.41061076293739       -4.27648158349029       -4.02170386304274
C           -0.56181880515879       -3.48631065331909       -3.47499221447080
C           -4.50640230649602       -1.62975265527064       -2.91573340893963