69
 energy: -114.929169295393 gnorm: 0.000096647770 xtb: 6.7.1 (edcfbbe)
O           -4.99751154658756       -2.98446908053508       -8.04373967217466
C           -4.24314209644904       -3.56989114385574       -7.41270352909292
O           -3.46127898123691       -4.18117732580881       -6.82978728837303
Ni          -2.95733060163005       -4.62567380784673       -5.12058068102302
N           -1.97892198116013       -6.07584871903612       -5.78507704882380
C           -2.46431880257850       -7.12857321984079       -6.35036301753607
C           -3.82730988867877       -7.58040645169296       -6.20160172852933
C           -4.74064679849044       -6.94543384362806       -5.34737962511790
C           -6.03465148059175       -7.41172066074573       -5.24207374276225
C           -6.44866159878442       -8.50824060903830       -5.98619482120137
C           -5.55435918731538       -9.14789539978271       -6.83081601123178
C           -4.25557698182885       -8.69281079296965       -6.93663829264963
C           -0.62303814275071       -5.76265377983062       -5.91192411472865
C            0.37204292000999       -6.74112143891307       -5.90698000627119
C            1.70302484633027       -6.37438711995022       -5.95891365719695
C            2.06293059244368       -5.03838885441003       -6.02206461965387
C            1.08241473239236       -4.05936111416669       -6.03479773656648
C           -0.24963290745906       -4.41452319333556       -5.97424585782628
C           -0.38870215129219       -6.70092101220744       -2.71104368407444
C           -0.19750899207990       -5.22711041834270       -2.90021794418671
C            1.01887906921745       -4.63663379396633       -2.76761900133770
C            1.18209142621682       -3.24488941519608       -2.96858472595959
C            2.45783541298683       -2.65846545627455       -3.02709103346801
C            2.60818598886699       -1.31998988875099       -3.27406058556646
C            1.47726814894881       -0.52289654003867       -3.48279754440642
C            0.22143533856308       -1.06302674610599       -3.40023670551135
C            0.03077375394133       -2.43062637730448       -3.11587279470011
C           -1.27309392323455       -3.01889720677095       -3.04868269018642
C           -2.43785587182863       -2.14930615625577       -2.89523103996257
C           -3.60111641065326       -2.24380216409129       -3.68681902684400
O           -3.91813178937268       -3.21747986105939       -4.48824813812064
O           -2.50065733591732       -5.03111368569436       -3.40755192638604
C           -1.36872214116850       -4.42393533409430       -3.15241271306884
C           -4.53627210143529       -1.14800977846684       -3.67295232082491
C           -5.69533914370052       -1.22160806940055       -4.62149996326070
C           -4.38171212278294       -0.11122656492014       -2.80942700810140
C           -3.32737936031824       -0.08509145796212       -1.86893753495740
C           -3.23668680021081        0.92930354749603       -0.89994383412728
C           -2.25006304220505        0.90974153599315        0.04813353034862
C           -1.33875611797173       -0.15185148528201        0.07028605766103
C           -1.39479791084717       -1.14074883864739       -0.87479258346373
C           -2.36246869320106       -1.12100825061166       -1.90171232766326
H           -1.83302618389076       -7.72984332697569       -7.00874279350515
H           -4.42568437017090       -6.08920011683607       -4.73218433680878
H           -6.72783221865655       -6.91993916360732       -4.57665813736631
H           -7.46465392296750       -8.86405407271077       -5.90589124624820
H           -5.87270795836038      -10.00443379781606       -7.40621180742912
H           -3.55924164763201       -9.19528311516828       -7.59313702116850
H            0.10148161946931       -7.78241732832827       -5.81245433226160
H            2.46580872838847       -7.13864918467021       -5.93817004144271
H            3.10449978901058       -4.75829529405782       -6.05054442456786
H            1.35780381345951       -3.01665253868183       -6.07485128416667
H           -1.01305244822100       -3.63385219361988       -5.97678785749464
H           -0.60976604576956       -6.90649156706376       -1.66320717491007
H           -1.23828112031244       -7.04595784298627       -3.29633897262825
H            0.50724882043088       -7.25097136453047       -2.98902604174619
H            1.89310443510129       -5.23424187436083       -2.54773671216862
H            3.32283704119836       -3.29270458935285       -2.88985654045658
H            3.59306070964201       -0.87839621527241       -3.32477129806778
H            1.59917712719614        0.52541588918541       -3.71446213175070
H           -0.64079197793884       -0.43814500585733       -3.57803874386082
H           -6.36518977921263       -0.37783300504571       -4.47682487969713
H           -5.34493246249383       -1.21964992717017       -5.65452683581590
H           -6.24588675040791       -2.14828019252481       -4.46451815671751
H           -5.09902505740034        0.69855644762082       -2.80545213338785
H           -3.97503028389564        1.71946070829211       -0.91000071770112
H           -2.18518106919697        1.69114696924303        0.79143882579407
H           -0.58994303243625       -0.19457370248759        0.84828098489022
H           -0.70067906045225       -1.96530561994994       -0.81868919988072
