
                                 *****************
                                 * O   R   C   A *
                                 *****************

                                            #,                                       
                                            ###                                      
                                            ####                                     
                                            #####                                    
                                            ######                                   
                                           ########,                                 
                                     ,,################,,,,,                         
                               ,,#################################,,                 
                          ,,##########################################,,             
                       ,#########################################, ''#####,          
                    ,#############################################,,   '####,        
                  ,##################################################,,,,####,       
                ,###########''''           ''''###############################       
              ,#####''   ,,,,##########,,,,          '''####'''          '####       
            ,##' ,,,,###########################,,,                        '##       
           ' ,,###''''                  '''############,,,                           
         ,,##''                                '''############,,,,        ,,,,,,###''
      ,#''                                            '''#######################'''  
     '                                                          ''''####''''         
             ,#######,   #######,   ,#######,      ##                                
            ,#'     '#,  ##    ##  ,#'     '#,    #''#        ,####,    ,#,          
            ##       ##  ##   ,#'  ##            #'  '#       #'       ,# #          
            ##       ##  #######   ##           ,######,      #####,      #          
            '#,     ,#'  ##    ##  '#,     ,#' ,#      #,     #,   #      #          
             '#######'   ##     ##  '#######'  #'      '#     '####' #    #          



                #########################################################
                #                        -***-                          #
                #          Department of theory and spectroscopy        #
                #                                                       #
                #                      Frank Neese                      #
                #                                                       #
                #     Directorship, Architecture, Infrastructure        #
                #                    SHARK, DRIVERS                     #
                #        Core code/Algorithms in most modules           #
                #                                                       #
                #        Max Planck Institute fuer Kohlenforschung      #
                #                Kaiser Wilhelm Platz 1                 #
                #                 D-45470 Muelheim/Ruhr                 #
                #                      Germany                          #
                #                                                       #
                #                  All rights reserved                  #
                #                        -***-                          #
                #########################################################


                         Program Version 6.1.0  -  RELEASE   -
                                (GIT: $679e74b$)
                          ($2025-06-10 18:02:51 +0200$)


 With contributions from (in alphabetic order):
[Max-Planck-Institut fuer Kohlenforschung]                               
  Daniel Aravena         : Magnetic Suceptibility                        
  Michael Atanasov       : Ab Initio Ligand Field Theory (pilot matlab implementation)
  Alexander A. Auer      : GIAO ZORA, VPT2 properties, NMR spectrum      
  Ute Becker             : All parallelization in ORCA, NUMFREQ, NUMCALC 
  Giovanni Bistoni       : ED, misc. LED, open-shell LED, HFLD           
  Dmytro Bykov           : pre 5.0 version of the SCF Hessian            
  Marcos Casanova-Páez   : Triplet and SCS-CIS(D). UHF-(DLPNO)-IP/EA/STEOM-CCSD. UHF-CVS-IP/STEOM-CCSD   
  Vijay G. Chilkuri      : MRCI spin determinant printing, contributions to CSF-ICE 
  Pauline Colinet        : FMM embedding                                 
  Dipayan Datta          : RHF DLPNO-CCSD density                        
  Achintya Kumar Dutta   : EOM-CC, STEOM-CC                              
  Nicolas Foglia         : Exact transition moments, OPA infrastructure, MCD improvements    
  Dmitry Ganyushin       : Spin-Orbit,Spin-Spin,Magnetic field MRCI      
  Miquel Garcia-Rates    : C-PCM and meta-GGA Hessian, CCSD/C-PCM, Gaussian charge scheme 
  Tiago L. C. Gouveia    : GS-ROHF, GS-ROCIS                             
  Yang Guo               : DLPNO-NEVPT2, F12-NEVPT2, CIM, IAO-localization        
  Andreas Hansen         : Spin unrestricted coupled pair/coupled cluster methods 
  Ingolf Harden          : AUTO-CI MPn and infrastructure                
  Benjamin Helmich-Paris : MC-RPA, TRAH-(SCF,CASSCF), AVAS, COSX integrals, SCF dyn. polar., MC-PDFT, srDFT 
  Lee Huntington         : MR-EOM, pCC                                   
  Robert Izsak           : Overlap fitted RIJCOSX, COSX-SCS-MP3, EOM     
  Riya Kayal             : Wick's Theorem for AUTO-CI, AUTO-CI UHF-CCSDT 
  Emily Kempfer          : AUTO-CI RHF CISDT and CCSDT, approximate NEVPT4
  Christian Kollmar      : KDIIS, OOCD, Brueckner-CCSD(T), CCSD density, CASPT2, CASPT2-K, improved NEVPT2 
  Axel Koslowski         : Symmetry handling                             
  Simone Kossmann        : meta-GGA functionals, TD-DFT gradient, OOMP2, (MP2 Hessian; deprecated post 5.0) 
  Lucas Lang             : DCDCAS, Hyperfine gauge corrections, ICE-SOC+SSC
  Marvin Lechner         : AUTO-CI (C++ implementation), FIC-MRCC        
  Spencer Leger          : CASSCF response                               
  Dagmar Lenk            : GEPOL surface, SMD, ORCA-2-JSON               
  Dimitrios Liakos       : Extrapolation schemes; Compound Job, Property file
  Dimitrios Manganas     : Further ROCIS development; embedding schemes. LFT, Crystal Embedding 
  Dimitrios Pantazis     : SARC Basis sets                               
  Anastasios Papadopoulos: AUTO-CI, single reference methods and gradients 
  Taras Petrenko         : pre 6.0 DFT Hessian and TD-DFT gradient,  ECA, NRVS 
  Petra Pikulova         : Analytic Raman intensities                    
  Peter Pinski           : DLPNO-MP2, DLPNO-MP2 Gradient                 
  Shashank Vittal Rao    : ES-AILFT, MagRelax                            
  Christoph Reimann      : Effective Core Potentials                     
  Marius Retegan         : Local ZFS, SOC                                
  Christoph Riplinger    : Optimizer, TS searches, QM/MM, DLPNO-CCSD(T), (RO)-DLPNO pert. Triples 
  Michael Roemelt        : Original ROCIS implementation, recursive CI coupling coefficients
  Masaaki Saitow         : Open-shell DLPNO-CCSD energy and density      
  Barbara Sandhoefer     : DKH picture change effects                    
  Yorick L. A. Schmerwitz: GMF and freeze-and-release deltaSCF, NEB S-IDPP initial path                    
  Kantharuban Sivalingam : CASSCF convergence/infrastructure, NEVPT2, NEVPT3, NEVPT4(SD), FIC-MRCI and CEPA variants
  Bernardo de Souza      : ESD, SOC TD-DFT                               
  Georgi L. Stoychev     : AutoAux, RI-MP2 NMR, DLPNO-MP2 response, X2C  
  Van Anh Tran           : RI-MP2 g-tensors                              
  Willem Van den Heuvel  : Paramagnetic NMR                              
  Zikuan Wang            : NOTCH, Electric field optimization            
  Frank Wennmohs         : Technical directorship and infrastructure     
  Hang Xu                : AUTO-CI-Response properties                   
                                                                         
[FACCTs GmbH]                                                            
  Markus Bursch, Nicolas Foglia, Miquel Garcia-Rates, Ingolf Harden, Hagen Neugebauer, Anastasios Papadopoulos, 
  Christoph Riplinger, Bernardo de Souza, Georgi L. Stoychev                                                    
                                                                 
  APM, various basis sets, CI-OPT, improved COSX, DLPNO-Multilevel,           
  DOCKER, DRACO, updates on ESD, Fragmentator, GOAT, IRC, LR-CPCM, L-BFGS, MBIS, meta-GGA TD-DFT gradient, ML-optimized integration grids, 
  MM, NACMEs, nearIR, NEB, NEB-TS, NL-DFT gradient (VV10), 2- and 3-layer-ONIOM, interface openCOSMO-RS, QMMM,   
  Crystal-QMMM, RESP, rigid body optimization, SF, symmetry and pop. for TD-DFT, various functionals, SOLVATOR                                   
                                                                         
[Other institutions]                                                     
  V. Asgeirsson          : NEB                                           
  Christoph Bannwarth    : sTDA-DFT, sTD-DFT, PBEh-3c, B97-3c, D3        
  Giovanni Bistoni       : ETS/NOCV, ADLD/ADEX, COVALED                  
  Martin Brehm           : Molecular dynamics                            
  Ronald Cardenas        : ETS/NOCV                                      
  Martina Colucci        : COVALED                                       
  Sebastian Ehlert       : rSCAN, r2SCAN, r2SCAN-3c, D4, dhf basis sets  
  Marvin Friede          : D4 for Fr, Ra, Ac-Lr                          
  Lars Goerigk           : TD-DFT with DH, B97 family of functionals     
  Stefan Grimme          : VdW corrections, initial TS optimization, DFT functionals, gCP, sTDA/sTD-DF 
  Waldemar Hujo          : DFT-NL                                        
  H. Jonsson             : NEB                                           
  Holger Kruse           : gCP                                           
  Marcel Mueller         : wB97X-3c, vDZP basis set                      
  Hagen Neugebauer       : wr2SCAN, Native XTB                           
  Gianluca Regni         : ADLD/ADEX                                     
  Tobias Risthaus        : pre 6.0 range-separated hybrid DFT and stability analysis
  Lukas Wittmann         : regularized MP2, r2SCAN double-hybrids, wr2SCAN        
                                                                         
We gratefully acknowledge several colleagues who have allowed us to      
interface, adapt or use parts of their codes:                            
  Ed Valeev, F. Pavosevic, A. Kumar             : LibInt (2-el integral package), F12 methods 
  Garnet Chan, S. Sharma, J. Yang, R. Olivares  : DMRG                   
  Ulf Ekstrom                                   : XCFun DFT Library      
  Mihaly Kallay                                 : mrcc  (arbitrary order and MRCC methods)
  Frank Weinhold                                : gennbo (NPA and NBO analysis)           
  Simon Mueller                                 : openCOSMO-RS                            
  Christopher J. Cramer and Donald G. Truhlar   : smd solvation model                     
  S Lehtola, MJT Oliveira, MAL Marques          : LibXC Library                           
  Liviu Ungur et al                             : ANISO software                          


 Your calculation uses the libint2 library for the computation of 2-el integrals
 For citations please refer to: http://libint.valeyev.net

 Your ORCA version has been built with support for libXC version: 7.0.0
 For citations please refer to: https://libxc.gitlab.io

 This ORCA versions uses:
   CBLAS   interface :  Fast vector & matrix operations
   LAPACKE interface :  Fast linear algebra routines
   SCALAPACK package :  Parallel linear algebra routines
   Shared memory     :  Shared parallel matrices
   BLAS/LAPACK       :  OpenBLAS 0.3.29  USE64BITINT DYNAMIC_ARCH NO_AFFINITY Zen SINGLE_THREADED
        Core in use  :  Zen
   Copyright (c) 2011-2014, The OpenBLAS Project


  ***********************************
  * Starting time: Wed Jan 28 11:52:48 2026
  * Host name:     node068.cluster
  * Process ID:    116575
  * Working dir.:  /scratch/56635123
  ***********************************

NOTE: MaxCore=12000 MB was set to SCF,MP2,MDCI,CIPSI,MRCI,RASCI and CIS
      => If you want to overwrite this, your respective input block should be placed after the MaxCore statement
Your calculation utilizes the semiempirical GFN2-xTB method
Please cite in your paper:
Bannwarth, C.; Ehlert S.; Grimme, S. J. Chem. Theory Comput. 2019, 15, 1652.
   

================================================================================

================================================================================
                                        WARNINGS
                       Please study these warnings very carefully!
================================================================================


WARNING: Analytical Hessian for XTB is limited in the analysis of the data.
       : If you want to obtain extensive IR and deltaG analysis, please use ! XTB NumFreq. 


WARNING: Geometry Optimization
  ===> : Switching off AutoStart
         For restart on a previous wavefunction, please use MOREAD

WARNING: Found dipole moment calculation with XTB calculation
  ===> : Switching off dipole moment calculation

[1769597569.036398] [node068:116580:0]     ucp_context.c:1234 UCX  WARN  transport 'ib' is not available, please use one or more of: mm, posix, self, shm, sm, sysv, tcp
[1769597569.059330] [node068:116581:0]     ucp_context.c:1234 UCX  WARN  transport 'ib' is not available, please use one or more of: mm, posix, self, shm, sm, sysv, tcp
[1769597569.089683] [node068:116584:0]     ucp_context.c:1234 UCX  WARN  transport 'ib' is not available, please use one or more of: mm, posix, self, shm, sm, sysv, tcp
[1769597569.112500] [node068:116587:0]     ucp_context.c:1234 UCX  WARN  transport 'ib' is not available, please use one or more of: mm, posix, self, shm, sm, sysv, tcp
[1769597569.139299] [node068:116590:0]     ucp_context.c:1234 UCX  WARN  transport 'ib' is not available, please use one or more of: mm, posix, self, shm, sm, sysv, tcp
[1769597569.164676] [node068:116593:0]     ucp_context.c:1234 UCX  WARN  transport 'ib' is not available, please use one or more of: mm, posix, self, shm, sm, sysv, tcp
[1769597569.194678] [node068:116596:0]     ucp_context.c:1234 UCX  WARN  transport 'ib' is not available, please use one or more of: mm, posix, self, shm, sm, sysv, tcp
[1769597569.220333] [node068:116599:0]     ucp_context.c:1234 UCX  WARN  transport 'ib' is not available, please use one or more of: mm, posix, self, shm, sm, sysv, tcp

WARNING: Found frequency calculation in combination with XTB calculation
  ===> : Need to redirect dipole moment calculation to properties.out


================================================================================
                                       INPUT FILE
================================================================================
NAME = 17_4_confsstruct_1.inp
|  1> !xtb opt freq 
|  2> %pal 
|  3> nprocs 8 
|  4> end 
|  5> %maxcore 12000
|  6>  
|  7> * XYZ 0 1 
|  8> O      4.68963600     -5.29699700     -5.39252200
|  9> C      4.14951900     -5.34175900     -4.35824200
| 10> O      4.29651400     -5.08097900     -3.17413700
| 11> Ni      2.68113800     -5.16309000     -2.31558100
| 12> C      2.24218900     -6.71672900     -3.38910000
| 13> N      2.53966900     -5.96073300     -4.42577500
| 14> C      1.70767800     -5.68460400     -5.49743300
| 15> C      0.72157100     -6.59867700     -5.89640700
| 16> C     -0.04959500     -6.33077200     -7.00732600
| 17> C      0.14011000     -5.15952300     -7.72967100
| 18> C      1.11997500     -4.25464900     -7.34160300
| 19> C      1.90324000     -4.50963200     -6.23516000
| 20> C      3.28615000     -7.50068100     -2.69016600
| 21> C      3.21957600     -7.75997900     -1.30969300
| 22> C      4.18069000     -8.54802400     -0.70184900
| 23> C      5.20484200     -9.10516700     -1.45310600
| 24> C      5.26661700     -8.87275000     -2.82036900
| 25> C      4.32986200     -8.06750000     -3.43743000
| 26> C      3.73590100     -2.96896800      1.07942300
| 27> C      2.92841400     -3.74714700      0.08963100
| 28> C      1.75599800     -4.33245000      0.57586300
| 29> C      0.75792900     -4.88605800     -0.24084200
| 30> C     -0.60420100     -4.97623600      0.36994900
| 31> N      1.00177800     -5.20139700     -1.49999800
| 32> C     -0.09092100     -5.50328700     -2.35223900
| 33> C     -0.40592600     -4.57475800     -3.36940700
| 34> C      0.38156700     -3.30933600     -3.50339900
| 35> C     -1.49469700     -4.81275900     -4.18935200
| 36> C     -2.25946600     -5.95971400     -4.04124700
| 37> C     -1.93538800     -6.87977300     -3.06011800
| 38> C     -0.85996200     -6.67948600     -2.20512800
| 39> C     -0.55191100     -7.73970800     -1.19421300
| 40> N      3.22134800     -3.75121600     -1.20772500
| 41> C      4.40966800     -3.11328200     -1.60970100
| 42> C      5.67013400     -3.67705200     -1.26393300
| 43> C      5.78293400     -4.97193300     -0.52607300
| 44> C      6.82328000     -3.04552900     -1.69750500
| 45> C      6.76648400     -1.88370700     -2.44991200
| 46> C      5.53406900     -1.32673700     -2.76613100
| 47> C      4.34981600     -1.92501700     -2.36900400
| 48> C      3.05022800     -1.24463500     -2.66247500
| 49> H      1.23726900     -7.14387800     -3.34670400
| 50> H      0.60551500     -7.53748300     -5.37623000
| 51> H     -0.78936200     -7.04812600     -7.32573800
| 52> H     -0.46260800     -4.96097000     -8.60169200
| 53> H      1.27578600     -3.35095000     -7.90925000
| 54> H      2.66136600     -3.80316800     -5.93455300
| 55> H      2.40811500     -7.35845700     -0.71170800
| 56> H      4.12502100     -8.73557200      0.35909800
| 57> H      5.94662600     -9.72665800     -0.97739200
| 58> H      6.04740500     -9.32323500     -3.41259900
| 59> H      4.37389200     -7.91288900     -4.50554200
| 60> H      3.07883500     -2.42788000      1.75636500
| 61> H      4.32612900     -3.65397700      1.68718300
| 62> H      4.40919700     -2.26512800      0.59941300
| 63> H      1.52302000     -4.19216600      1.61903000
| 64> H     -0.77956300     -4.11231000      1.00673300
| 65> H     -1.38956800     -5.03047500     -0.37742900
| 66> H     -0.66851300     -5.85827700      1.00666500
| 67> H      0.07946900     -2.60269800     -2.72953000
| 68> H      0.19764200     -2.84793100     -4.46923700
| 69> H      1.46412000     -3.49244000     -3.39505200
| 70> H     -1.75416600     -4.08576800     -4.94248900
| 71> H     -3.10386800     -6.13434200     -4.68787300
| 72> H     -2.52643300     -7.77499900     -2.94452600
| 73> H     -1.41540200     -7.89405500     -0.54891100
| 74> H     -0.36346100     -8.68990500     -1.69367400
| 75> H      0.30596100     -7.50009400     -0.57534800
| 76> H      6.49701900     -5.61922100     -1.03170400
| 77> H      6.16950600     -4.79480500      0.47780300
| 78> H      4.83160100     -5.50129000     -0.45254100
| 79> H      7.77994800     -3.48136300     -1.45334800
| 80> H      7.67535900     -1.40834400     -2.78262000
| 81> H      5.49137600     -0.39637500     -3.31166200
| 82> H      3.15392000     -0.17335200     -2.50513500
| 83> H      2.24968300     -1.61296300     -2.02766100
| 84> H      2.77710000     -1.38676000     -3.70765000
| 85> 
| 86> **                         ****END OF INPUT****
================================================================================

                       *****************************
                       * Geometry Optimization Run *
                       *****************************

Geometry optimization settings:
Update method            Update   .... BFGS
Choice of coordinates    CoordSys .... (2022) Redundant Internals
Initial Hessian          InHess   .... Almloef's Model
Max. no of cycles        MaxIter  .... 231

Convergence Tolerances:
Energy Change            TolE     ....  5.0000e-06 Eh
Max. Gradient            TolMAXG  ....  3.0000e-04 Eh/bohr
RMS Gradient             TolRMSG  ....  1.0000e-04 Eh/bohr
Max. Displacement        TolMAXD  ....  4.0000e-03 bohr
RMS Displacement         TolRMSD  ....  2.0000e-03 bohr
Strict Convergence                .... False

------------------------------------------------------------------------------
                        ORCA OPTIMIZATION COORDINATE SETUP
------------------------------------------------------------------------------

The optimization will be done in redundant internal coordinates (2022)
Making redundant internal coordinates   ...  (2022 redundants) done
Evaluating the initial hessian          ...  (Almloef) done
Evaluating the coordinates              ...  done
Calculating the B-matrix                .... done
Calculating the G-matrix                .... done
The number of degrees of freedom        ....  598

    -----------------------------------------------------------------
                    Redundant Internal Coordinates


    -----------------------------------------------------------------
         Definition                    Initial Value    Approx d2E/dq
    -----------------------------------------------------------------
      1. B(C   1,O   0)                  1.1677         1.266428   
      2. B(O   2,C   1)                  1.2214         1.039755   
      3. B(Ni  3,C   1)                  2.5220         0.098813   
      4. B(Ni  3,O   2)                  1.8312         1.119672   
      5. B(C   4,Ni  3)                  1.9388         0.841979   
      6. B(N   5,Ni  3)                  2.2603         0.231429   
      7. B(N   5,C   1)                  1.7261         0.162818   
      8. B(N   5,C   4)                  1.3171         0.731481   
      9. B(C   6,N   5)                  1.3845         0.570968   
     10. B(C   7,C   6)                  1.4025         0.596668   
     11. B(C   8,C   7)                  1.3786         0.651455   
     12. B(C   9,C   8)                  1.3891         0.626869   
     13. B(C  10,C   9)                  1.3891         0.626923   
     14. B(C  11,C  10)                  1.3794         0.649613   
     15. B(C  11,C   6)                  1.4011         0.599860   
     16. B(C  12,C   4)                  1.4809         0.447485   
     17. B(C  12,Ni  3)                  2.4435         0.131848   
     18. B(C  13,C  12)                  1.4062         0.588717   
     19. B(C  14,C  13)                  1.3836         0.639762   
     20. B(C  15,C  14)                  1.3870         0.631793   
     21. B(C  16,C  15)                  1.3883         0.628823   
     22. B(C  17,C  16)                  1.3808         0.646194   
     23. B(C  17,C  12)                  1.4032         0.595181   
     24. B(C  19,C  18)                  1.4958         0.423654   
     25. B(C  19,Ni  3)                  2.8020         0.035330   
     26. B(C  20,C  19)                  1.3977         0.607374   
     27. B(C  21,C  20)                  1.4034         0.594707   
     28. B(C  22,C  21)                  1.4955         0.424014   
     29. B(N  23,C  21)                  1.3207         0.721710   
     30. B(N  23,Ni  3)                  1.8673         0.980534   
     31. B(C  24,Ni  3)                  2.7931         0.036502   
     32. B(C  24,N  23)                  1.4183         0.504427   
     33. B(C  25,C  24)                  1.4128         0.574580   
     34. B(C  26,C  25)                  1.4965         0.422560   
     35. B(C  27,C  25)                  1.3836         0.639637   
     36. B(C  28,C  27)                  1.3865         0.632940   
     37. B(C  29,C  28)                  1.3835         0.639830   
     38. B(C  30,C  29)                  1.3884         0.628472   
     39. B(C  30,C  24)                  1.4130         0.574218   
     40. B(C  31,C  30)                  1.4970         0.421771   
     41. B(N  32,C  19)                  1.3300         0.697535   
     42. B(N  32,Ni  3)                  1.8742         0.956132   
     43. B(C  33,N  32)                  1.4074         0.525033   
     44. B(C  33,Ni  3)                  2.7727         0.039344   
     45. B(C  34,C  33)                  1.4234         0.552580   
     46. B(C  35,C  34)                  1.4946         0.425432   
     47. B(C  36,C  34)                  1.3844         0.637793   
     48. B(C  37,C  36)                  1.3853         0.635580   
     49. B(C  38,C  37)                  1.3889         0.627315   
     50. B(C  39,C  38)                  1.3850         0.636481   
     51. B(C  39,C  33)                  1.4114         0.577523   
     52. B(C  40,C  39)                  1.4960         0.423297   
     53. B(H  41,C   4)                  1.0928         0.356471   
     54. B(H  42,C   7)                  1.0795         0.374205   
     55. B(H  43,C   8)                  1.0785         0.375590   
     56. B(H  44,C   9)                  1.0785         0.375671   
     57. B(H  45,C  10)                  1.0785         0.375633   
     58. B(H  46,C  11)                  1.0790         0.374969   
     59. B(H  47,C  13)                  1.0850         0.366744   
     60. B(H  48,C  14)                  1.0788         0.375179   
     61. B(H  49,C  15)                  1.0783         0.375872   
     62. B(H  50,C  16)                  1.0786         0.375549   
     63. B(H  51,C  17)                  1.0801         0.373380   
     64. B(H  52,C  18)                  1.0875         0.363357   
     65. B(H  53,C  18)                  1.0895         0.360781   
     66. B(H  54,C  18)                  1.0859         0.365596   
     67. B(H  55,C  20)                  1.0780         0.376284   
     68. B(H  56,C  22)                  1.0875         0.363448   
     69. B(H  57,C  22)                  1.0855         0.366098   
     70. B(H  58,C  22)                  1.0897         0.360440   
     71. B(H  59,C  26)                  1.0906         0.359268   
     72. B(H  60,C  26)                  1.0861         0.365325   
     73. B(H  61,C  26)                  1.1033         0.342977   
     74. B(H  62,C  27)                  1.0785         0.375707   
     75. B(H  63,H  44)                  4.8653         0.010000   
     76. B(H  63,C  28)                  1.0778         0.376618   
     77. B(H  64,C  29)                  1.0789         0.375023   
     78. B(H  65,C  31)                  1.0890         0.361466   
     79. B(H  66,C  31)                  1.0899         0.360252   
     80. B(H  67,C  31)                  1.0846         0.367317   
     81. B(H  68,C  35)                  1.0884         0.362255   
     82. B(H  69,C  35)                  1.0902         0.359809   
     83. B(H  70,C  35)                  1.0912         0.358551   
     84. B(H  71,C  36)                  1.0792         0.374607   
     85. B(H  72,C  37)                  1.0783         0.375923   
     86. B(H  73,C  38)                  1.0794         0.374465   
     87. B(H  74,C  40)                  1.0877         0.363116   
     88. B(H  75,C  40)                  1.0861         0.365350   
     89. B(H  76,C  40)                  1.0896         0.360653   
     90. A(O   0,C   1,O   2)          142.6446         0.537492   
     91. A(O   0,C   1,Ni  3)          169.7385         0.395587   
     92. A(O   2,C   1,N   5)          103.1058         0.370913   
     93. A(O   2,C   1,Ni  3)           43.0899         0.382203   
     94. A(Ni  3,C   1,N   5)           60.9265         0.281715   
     95. A(O   0,C   1,N   5)          114.2365         0.383782   
     96. A(C   1,O   2,Ni  3)          109.8041         0.593953   
     97. A(O   2,Ni  3,N   5)           68.4897         0.505070   
     98. A(C   1,Ni  3,C  24)          123.9578         0.248984   
     99. A(N   5,Ni  3,C  12)           62.2763         0.346890   
    100. A(C   4,Ni  3,N   5)           35.5237         0.481363   
    101. A(C  12,Ni  3,C  24)           97.3080         0.259776   
    102. A(C   1,Ni  3,N  32)          111.3653         0.422066   
    103. A(C   1,Ni  3,C   4)           68.0735         0.414516   
    104. A(O   2,Ni  3,C  33)           62.3722         0.369239   
    105. A(N  23,Ni  3,N  32)           90.9454         0.645634   
    106. A(C  12,Ni  3,N  23)          105.6647         0.446568   
    107. A(N  23,Ni  3,C  33)          117.6865         0.360948   
    108. A(O   2,Ni  3,C  12)           75.6765         0.457469   
    109. A(O   2,Ni  3,C  24)          151.0217         0.364524   
    110. A(C  19,Ni  3,C  24)           99.2302         0.215759   
    111. A(C   1,Ni  3,N   5)           41.8675         0.330593   
    112. A(C   1,Ni  3,N  23)          151.1539         0.423971   
    113. A(N  23,Ni  3,C  24)           27.2104         0.356372   
    114. A(C  12,Ni  3,N  32)          137.7251         0.444534   
    115. A(O   2,Ni  3,C  19)          107.5748         0.362497   
    116. A(C  19,Ni  3,N  32)           24.0018         0.352895   
    117. A(C  12,Ni  3,C  33)          126.2929         0.262699   
    118. A(O   2,Ni  3,C   4)           88.6275         0.649602   
    119. A(C  24,Ni  3,C  33)          135.4063         0.218884   
    120. A(C  19,Ni  3,N  23)           73.4301         0.354405   
    121. A(N   5,Ni  3,C  24)           83.2608         0.281838   
    122. A(C   1,Ni  3,O   2)           27.1060         0.434184   
    123. A(C  24,Ni  3,N  32)          112.6797         0.354851   
    124. A(C   4,Ni  3,C  12)           37.3035         0.436474   
    125. A(C  19,Ni  3,C  33)           49.6738         0.217928   
    126. A(C   4,Ni  3,N  23)           91.2484         0.633016   
    127. A(N   5,Ni  3,N  23)          110.1345         0.492760   
    128. A(N  32,Ni  3,C  33)           27.4885         0.359401   
    129. A(C   4,Ni  3,C  24)           70.7574         0.348825   
    130. A(N   5,Ni  3,N  32)          146.6915         0.490463   
    131. A(C   1,Ni  3,C  12)           70.3609         0.302953   
    132. A(N   5,Ni  3,C  33)          122.5185         0.285138   
    133. A(C   1,Ni  3,C  33)           84.0075         0.251722   
    134. A(O   2,Ni  3,N  32)           89.3753         0.662605   
    135. A(C   4,Ni  3,C  33)          150.9893         0.353271   
    136. A(C   4,Ni  3,C  19)          154.1881         0.346913   
    137. A(N   5,Ni  3,C  19)          170.1384         0.280419   
    138. A(C  12,Ni  3,C  19)          126.3826         0.258520   
    139. A(C   1,Ni  3,C  19)          132.8174         0.247807   
    140. A(Ni  3,C   4,H  41)          119.9974         0.414908   
    141. A(Ni  3,C   4,N   5)           85.6827         0.528748   
    142. A(N   5,C   4,C  12)          121.0731         0.419001   
    143. A(C  12,C   4,H  41)          115.0278         0.333572   
    144. A(N   5,C   4,H  41)          117.5558         0.360096   
    145. A(Ni  3,C   4,C  12)           90.1879         0.485722   
    146. A(C   4,N   5,C   6)          126.0141         0.434844   
    147. A(C   1,N   5,Ni  3)           77.2060         0.321290   
    148. A(Ni  3,N   5,C   6)          133.6174         0.397577   
    149. A(C   1,N   5,C   6)          121.2803         0.335147   
    150. A(Ni  3,N   5,C   4)           58.7937         0.415374   
    151. A(C   1,N   5,C   4)          112.6869         0.349344   
    152. A(N   5,C   6,C   7)          120.8441         0.422001   
    153. A(C   7,C   6,C  11)          119.6633         0.428536   
    154. A(N   5,C   6,C  11)          119.4019         0.422403   
    155. A(C   6,C   7,C   8)          119.7269         0.434936   
    156. A(C   8,C   7,H  42)          119.8110         0.358213   
    157. A(C   6,C   7,H  42)          120.3499         0.352913   
    158. A(C   7,C   8,C   9)          120.4304         0.438824   
    159. A(C   9,C   8,H  43)          120.0635         0.356102   
    160. A(C   7,C   8,H  43)          119.4932         0.358438   
    161. A(C   8,C   9,C  10)          120.0212         0.435798   
    162. A(C  10,C   9,H  44)          120.0123         0.356120   
    163. A(C   8,C   9,H  44)          119.9585         0.356115   
    164. A(C   9,C  10,C  11)          120.2800         0.438607   
    165. A(C  11,C  10,H  45)          119.6720         0.358272   
    166. A(C   9,C  10,H  45)          120.0468         0.356114   
    167. A(C   6,C  11,C  10)          119.8750         0.435133   
    168. A(C  10,C  11,H  46)          120.0937         0.358164   
    169. A(C   6,C  11,H  46)          120.0304         0.353354   
    170. A(C   4,C  12,C  17)          119.1339         0.406566   
    171. A(C   4,C  12,C  13)          121.8427         0.405782   
    172. A(Ni  3,C  12,C  17)          130.7104         0.367144   
    173. A(C  13,C  12,C  17)          118.9158         0.426907   
    174. A(Ni  3,C  12,C  13)           90.8129         0.366458   
    175. A(Ni  3,C  12,C   4)           52.5086         0.349755   
    176. A(C  12,C  13,C  14)          120.2279         0.432477   
    177. A(C  14,C  13,H  47)          119.2206         0.355892   
    178. A(C  12,C  13,H  47)          120.5451         0.350916   
    179. A(C  15,C  14,H  48)          120.0625         0.356509   
    180. A(C  13,C  14,C  15)          120.2506         0.438010   
    181. A(C  13,C  14,H  48)          119.6844         0.357269   
    182. A(C  14,C  15,C  16)          119.9386         0.436651   
    183. A(C  16,C  15,H  49)          120.0243         0.356336   
    184. A(C  14,C  15,H  49)          120.0340         0.356621   
    185. A(C  17,C  16,H  50)          119.2943         0.357937   
    186. A(C  15,C  16,C  17)          120.5017         0.438429   
    187. A(C  15,C  16,H  50)          120.2038         0.356284   
    188. A(C  12,C  17,C  16)          120.1442         0.434107   
    189. A(C  16,C  17,H  51)          119.8492         0.357585   
    190. A(C  12,C  17,H  51)          119.9408         0.352632   
    191. A(C  19,C  18,H  54)          112.2987         0.331947   
    192. A(H  53,C  18,H  54)          108.5553         0.291619   
    193. A(H  52,C  18,H  53)          107.0318         0.291338   
    194. A(C  19,C  18,H  53)          109.5420         0.331219   
    195. A(H  52,C  18,H  54)          109.1038         0.291946   
    196. A(C  19,C  18,H  52)          110.1559         0.331609   
    197. A(C  18,C  19,C  20)          116.1357         0.404100   
    198. A(Ni  3,C  19,C  20)           90.7436         0.296402   
    199. A(Ni  3,C  19,C  18)          151.4713         0.280163   
    200. A(C  20,C  19,N  32)          121.5205         0.438844   
    201. A(C  18,C  19,N  32)          121.8820         0.411452   
    202. A(Ni  3,C  19,N  32)           34.9728         0.301242   
    203. A(C  19,C  20,C  21)          124.0060         0.429240   
    204. A(C  21,C  20,H  55)          117.4356         0.353047   
    205. A(C  19,C  20,H  55)          117.6078         0.354310   
    206. A(C  22,C  21,N  23)          122.8970         0.414010   
    207. A(C  20,C  21,N  23)          121.1765         0.439874   
    208. A(C  20,C  21,C  22)          115.7119         0.402660   
    209. A(H  57,C  22,H  58)          108.6110         0.291639   
    210. A(C  21,C  22,H  58)          109.9491         0.331214   
    211. A(C  21,C  22,H  57)          112.3825         0.332069   
    212. A(H  56,C  22,H  58)          106.9397         0.291306   
    213. A(H  56,C  22,H  57)          109.0376         0.292020   
    214. A(C  21,C  22,H  56)          109.7623         0.331670   
    215. A(Ni  3,N  23,C  21)          125.2780         0.540147   
    216. A(C  21,N  23,C  24)          118.7808         0.424258   
    217. A(Ni  3,N  23,C  24)          115.7733         0.505014   
    218. A(C  25,C  24,C  30)          120.0459         0.422337   
    219. A(N  23,C  24,C  30)          122.2735         0.409993   
    220. A(Ni  3,C  24,C  30)          129.8061         0.295302   
    221. A(N  23,C  24,C  25)          117.6791         0.410038   
    222. A(Ni  3,C  24,C  25)           98.6666         0.295331   
    223. A(Ni  3,C  24,N  23)           37.0164         0.287690   
    224. A(C  26,C  25,C  27)          120.4306         0.407626   
    225. A(C  24,C  25,C  27)          119.2787         0.430577   
    226. A(C  24,C  25,C  26)          120.1912         0.399984   
    227. A(H  60,C  26,H  61)          108.9057         0.289278   
    228. A(H  59,C  26,H  61)          108.0378         0.288521   
    229. A(C  25,C  26,H  61)          111.5445         0.328320   
    230. A(H  59,C  26,H  60)          107.9893         0.291393   
    231. A(C  25,C  26,H  60)          110.4723         0.331764   
    232. A(C  25,C  26,H  59)          109.7908         0.330847   
    233. A(C  28,C  27,H  62)          119.9696         0.356704   
    234. A(C  25,C  27,H  62)          119.1581         0.357343   
    235. A(C  25,C  27,C  28)          120.8669         0.438138   
    236. A(C  29,C  28,H  63)          120.0812         0.357508   
    237. A(C  27,C  28,H  63)          120.1386         0.356851   
    238. A(C  27,C  28,C  29)          119.7801         0.438162   
    239. A(C  30,C  29,H  64)          118.5569         0.356165   
    240. A(C  28,C  29,H  64)          119.9624         0.357250   
    241. A(C  28,C  29,C  30)          121.4803         0.437603   
    242. A(C  29,C  30,C  31)          118.2348         0.406224   
    243. A(C  24,C  30,C  31)          123.2210         0.399808   
    244. A(C  24,C  30,C  29)          118.5254         0.429170   
    245. A(H  66,C  31,H  67)          108.5016         0.291767   
    246. A(H  65,C  31,H  67)          108.6856         0.291922   
    247. A(C  30,C  31,H  67)          113.0556         0.331960   
    248. A(H  65,C  31,H  66)          106.5647         0.291032   
    249. A(C  30,C  31,H  66)          110.0952         0.330895   
    250. A(C  30,C  31,H  65)          109.7176         0.331079   
    251. A(C  19,N  32,C  33)          117.5933         0.424711   
    252. A(Ni  3,N  32,C  33)          114.5831         0.506413   
    253. A(Ni  3,N  32,C  19)          121.0253         0.534135   
    254. A(C  34,C  33,C  39)          120.1108         0.419834   
    255. A(N  32,C  33,C  39)          119.9651         0.413336   
    256. A(Ni  3,C  33,C  39)          117.3230         0.299105   
    257. A(N  32,C  33,C  34)          119.9194         0.410111   
    258. A(Ni  3,C  33,C  34)          108.7280         0.297016   
    259. A(Ni  3,C  33,N  32)           37.9284         0.292931   
    260. A(C  35,C  34,C  36)          119.1409         0.407906   
    261. A(C  33,C  34,C  36)          118.7406         0.427351   
    262. A(C  33,C  34,C  35)          121.9977         0.397721   
    263. A(H  69,C  35,H  70)          109.0206         0.290606   
    264. A(H  68,C  35,H  70)          108.3491         0.290915   
    265. A(C  34,C  35,H  70)          112.8155         0.331109   
    266. A(H  68,C  35,H  69)          106.9636         0.291075   
    267. A(C  34,C  35,H  69)          109.9124         0.331301   
    268. A(C  34,C  35,H  68)          109.5979         0.331672   
    269. A(C  34,C  36,C  37)          121.2329         0.438239   
    270. A(C  37,C  36,H  71)          119.8602         0.356779   
    271. A(C  34,C  36,H  71)          118.9001         0.356989   
    272. A(C  36,C  37,C  38)          119.7585         0.436932   
    273. A(C  38,C  37,H  72)          120.0581         0.356199   
    274. A(C  36,C  37,H  72)          120.1816         0.356991   
    275. A(C  37,C  38,C  39)          121.3473         0.437044   
    276. A(C  39,C  38,H  73)          118.9116         0.356842   
    277. A(C  37,C  38,H  73)          119.7245         0.355964   
    278. A(C  38,C  39,C  40)          119.3475         0.407395   
    279. A(C  33,C  39,C  40)          121.6866         0.400466   
    280. A(C  33,C  39,C  38)          118.7955         0.430590   
    281. A(H  75,C  40,H  76)          109.3707         0.291572   
    282. A(H  74,C  40,H  76)          106.9249         0.291291   
    283. A(C  39,C  40,H  76)          110.2804         0.331153   
    284. A(H  74,C  40,H  75)          108.6467         0.291884   
    285. A(C  39,C  40,H  75)          111.8039         0.331863   
    286. A(C  39,C  40,H  74)          109.6783         0.331527   
    287. D(Ni  3,O   2,C   1,O   0)    166.7764         0.099298   
    288. D(Ni  3,O   2,C   1,N   5)    -11.7020         0.099298   
    289. D(C   4,Ni  3,C   1,O   0)     94.3164         0.010000   
    290. D(C   4,Ni  3,C   1,O   2)   -136.8655         0.010000   
    291. D(C  24,Ni  3,O   2,C   1)     -4.2599         0.010000   
    292. D(C  19,Ni  3,C   1,O   0)   -103.8812         0.010000   
    293. D(C  12,Ni  3,C   1,O   0)    134.2510         0.010000   
    294. D(C  12,Ni  3,O   2,C   1)     74.7836         0.010000   
    295. D(C  33,Ni  3,O   2,C   1)   -139.8134         0.010000   
    296. D(C   4,Ni  3,O   2,C   1)     39.3783         0.010000   
    297. D(N  32,Ni  3,O   2,C   1)   -145.1763         0.010000   
    298. D(C  19,Ni  3,O   2,C   1)   -161.0702         0.010000   
    299. D(C   4,Ni  3,C   1,N   5)     30.0718         0.010000   
    300. D(C  12,Ni  3,C   1,O   2)    -96.9309         0.010000   
    301. D(C  12,Ni  3,C   1,N   5)     70.0065         0.010000   
    302. D(O   2,Ni  3,C   1,O   0)   -128.8181         0.010000   
    303. D(C  19,Ni  3,C   1,O   2)     24.9369         0.010000   
    304. D(N   5,Ni  3,O   2,C   1)      9.3310         0.010000   
    305. D(N   5,Ni  3,C   1,O   0)     64.2446         0.010000   
    306. D(O   2,Ni  3,C   1,N   5)    166.9373         0.010000   
    307. D(N   5,Ni  3,C   1,O   2)   -166.9373         0.010000   
    308. D(C  12,C   4,Ni  3,N   5)    121.1551         0.010000   
    309. D(N   5,C   4,Ni  3,C   1)    -35.1396         0.010000   
    310. D(N   5,C   4,Ni  3,N  23)    124.1975         0.010000   
    311. D(N   5,C   4,Ni  3,O   2)    -53.2962         0.010000   
    312. D(N   5,C   4,Ni  3,C  12)   -121.1551         0.010000   
    313. D(N   5,C   4,Ni  3,C  19)    176.6031         0.010000   
    314. D(N   5,C   4,Ni  3,C  33)    -51.8194         0.010000   
    315. D(N   5,C   4,Ni  3,C  24)    105.9641         0.010000   
    316. D(C  12,C   4,Ni  3,O   2)     67.8589         0.010000   
    317. D(C  12,C   4,Ni  3,C   1)     86.0155         0.010000   
    318. D(C  12,C   4,Ni  3,N  23)   -114.6475         0.010000   
    319. D(C  12,C   4,Ni  3,C  24)   -132.8809         0.010000   
    320. D(C  12,C   4,Ni  3,C  19)    -62.2419         0.010000   
    321. D(C   1,N   5,Ni  3,C  24)    167.0620         0.010000   
    322. D(C   6,N   5,C   4,Ni  3)   -123.8326         0.052381   
    323. D(Ni  3,N   5,C   4,H  41)    121.7453         0.052381   
    324. D(Ni  3,N   5,C   4,C  12)    -87.6127         0.052381   
    325. D(C   1,N   5,C   4,H  41)    179.4789         0.052381   
    326. D(C   1,N   5,C   4,Ni  3)     57.7336         0.052381   
    327. D(C   1,N   5,Ni  3,C   4)   -126.8688         0.010000   
    328. D(C   1,N   5,Ni  3,N  32)     45.2459         0.010000   
    329. D(C   1,N   5,Ni  3,C  33)     26.2526         0.010000   
    330. D(C   4,N   5,Ni  3,C  19)   -171.3360         0.010000   
    331. D(C   1,N   5,Ni  3,N  23)    171.4003         0.010000   
    332. D(C   4,N   5,Ni  3,C   1)    126.8688         0.010000   
    333. D(C   4,N   5,Ni  3,C  12)     35.8658         0.010000   
    334. D(C   1,N   5,Ni  3,C  12)    -91.0030         0.010000   
    335. D(C   1,N   5,Ni  3,C  19)     61.7953         0.010000   
    336. D(C   1,N   5,Ni  3,O   2)     -6.3552         0.010000   
    337. D(C   4,N   5,Ni  3,O   2)    120.5136         0.010000   
    338. D(C   6,N   5,C   1,O   0)    -36.2548         0.010000   
    339. D(C   1,N   5,C   4,C  12)    -29.8791         0.052381   
    340. D(C   4,N   5,C   1,Ni  3)    -47.8712         0.010000   
    341. D(C   4,N   5,C   1,O   0)    142.2629         0.010000   
    342. D(C   4,N   5,C   1,O   2)    -38.7495         0.010000   
    343. D(Ni  3,N   5,C   1,O   2)      9.1217         0.010000   
    344. D(C   6,N   5,C   4,C  12)    148.5546         0.052381   
    345. D(Ni  3,N   5,C   1,O   0)   -169.8659         0.010000   
    346. D(C  11,C   6,N   5,C   1)    -26.6918         0.028355   
    347. D(C   7,C   6,N   5,Ni  3)   -107.4000         0.028355   
    348. D(C   7,C   6,N   5,C   1)    149.8324         0.028355   
    349. D(C   7,C   6,N   5,C   4)    -28.4768         0.028355   
    350. D(C  11,C   6,N   5,Ni  3)     76.0759         0.028355   
    351. D(H  42,C   7,C   6,C  11)    175.8966         0.024528   
    352. D(C   8,C   7,C   6,C  11)     -0.2454         0.024528   
    353. D(C   8,C   7,C   6,N   5)   -176.7605         0.024528   
    354. D(H  42,C   7,C   6,N   5)     -0.6185         0.024528   
    355. D(C   9,C   8,C   7,H  42)   -176.4420         0.029559   
    356. D(C   9,C   8,C   7,C   6)     -0.2790         0.029559   
    357. D(H  43,C   8,C   7,H  42)      2.2582         0.029559   
    358. D(H  43,C   8,C   7,C   6)    178.4212         0.029559   
    359. D(H  44,C   9,C   8,H  43)      0.8651         0.027229   
    360. D(C  10,C   9,C   8,C   7)      0.5870         0.027229   
    361. D(C  10,C   9,C   8,H  43)   -178.1057         0.027229   
    362. D(H  44,C   9,C   8,C   7)    179.5578         0.027229   
    363. D(H  45,C  10,C   9,H  44)      0.2759         0.027234   
    364. D(H  45,C  10,C   9,C   8)    179.2461         0.027234   
    365. D(C  11,C  10,C   9,H  44)   -179.3349         0.027234   
    366. D(C  11,C  10,C   9,C   8)     -0.3647         0.027234   
    367. D(H  46,C  11,C  10,H  45)      0.5845         0.029380   
    368. D(H  46,C  11,C  10,C   9)   -179.8033         0.029380   
    369. D(C   6,C  11,C  10,H  45)   -179.7723         0.029380   
    370. D(C   6,C  11,C  10,C   9)     -0.1601         0.029380   
    371. D(H  46,C  11,C   6,C   7)   -179.8919         0.024805   
    372. D(H  46,C  11,C   6,N   5)     -3.3262         0.024805   
    373. D(C  10,C  11,C   6,C   7)      0.4646         0.024805   
    374. D(C  10,C  11,C   6,N   5)    177.0303         0.024805   
    375. D(C  17,C  12,C   4,Ni  3)   -120.9001         0.015818   
    376. D(C  13,C  12,C   4,H  41)    -60.6819         0.015818   
    377. D(C  13,C  12,C   4,N   5)    147.9833         0.015818   
    378. D(Ni  3,C  12,C   4,H  41)   -123.5940         0.015818   
    379. D(Ni  3,C  12,C   4,N   5)     85.0713         0.015818   
    380. D(C  13,C  12,Ni  3,N   5)   -165.0277         0.010000   
    381. D(C   4,C  12,Ni  3,N  32)   -179.8055         0.010000   
    382. D(C  13,C  12,Ni  3,C   1)    149.8574         0.010000   
    383. D(C   4,C  12,Ni  3,C  33)   -145.7371         0.010000   
    384. D(C  13,C  12,Ni  3,C   4)   -130.8527         0.010000   
    385. D(C   4,C  12,Ni  3,C  24)     44.2266         0.010000   
    386. D(C   4,C  12,Ni  3,N  23)     70.6872         0.010000   
    387. D(C   4,C  12,Ni  3,C  19)    151.4057         0.010000   
    388. D(C  13,C  12,C   4,Ni  3)     62.9121         0.015818   
    389. D(C  13,C  12,Ni  3,O   2)    122.0293         0.010000   
    390. D(C   4,C  12,Ni  3,O   2)   -107.1179         0.010000   
    391. D(C   4,C  12,Ni  3,C   1)    -79.2898         0.010000   
    392. D(C  17,C  12,C   4,N   5)    -35.8289         0.015818   
    393. D(C   4,C  12,Ni  3,N   5)    -34.1749         0.010000   
    394. D(H  47,C  13,C  12,C   4)     -2.0559         0.025898   
    395. D(H  47,C  13,C  12,Ni  3)     42.8935         0.025898   
    396. D(C  14,C  13,C  12,C  17)      0.8185         0.025898   
    397. D(C  14,C  13,C  12,C   4)    177.0144         0.025898   
    398. D(C  14,C  13,C  12,Ni  3)   -138.0362         0.025898   
    399. D(H  48,C  14,C  13,H  47)     -1.3484         0.028436   
    400. D(H  48,C  14,C  13,C  12)    179.5690         0.028436   
    401. D(C  15,C  14,C  13,H  47)    178.0678         0.028436   
    402. D(C  15,C  14,C  13,C  12)     -1.0147         0.028436   
    403. D(H  49,C  15,C  14,H  48)      0.0090         0.027686   
    404. D(H  49,C  15,C  14,C  13)   -179.4050         0.027686   
    405. D(C  16,C  15,C  14,H  48)    179.3751         0.027686   
    406. D(C  16,C  15,C  14,C  13)     -0.0389         0.027686   
    407. D(H  50,C  16,C  15,C  14)   -178.5208         0.027410   
    408. D(H  50,C  16,C  15,H  49)      0.8454         0.027410   
    409. D(C  17,C  16,C  15,H  49)   -179.3365         0.027410   
    410. D(C  17,C  16,C  15,C  14)      1.2974         0.027410   
    411. D(C  16,C  17,C  12,Ni  3)    120.2083         0.026503   
    412. D(C  16,C  17,C  12,C   4)   -175.8733         0.026503   
    413. D(C  16,C  17,C  12,C  13)      0.4272         0.026503   
    414. D(H  51,C  17,C  16,H  50)      1.2863         0.029050   
    415. D(H  51,C  17,C  16,C  15)   -178.5335         0.029050   
    416. D(C  12,C  17,C  16,H  50)    178.3336         0.029050   
    417. D(C  12,C  17,C  16,C  15)     -1.4862         0.029050   
    418. D(H  51,C  17,C  12,C   4)      1.1713         0.026503   
    419. D(H  51,C  17,C  12,Ni  3)    -62.7471         0.026503   
    420. D(C  20,C  19,C  18,H  53)     79.7689         0.014196   
    421. D(C  20,C  19,C  18,H  52)    -37.7063         0.014196   
    422. D(Ni  3,C  19,C  18,H  54)     41.5784         0.014196   
    423. D(Ni  3,C  19,C  18,H  53)    -79.1206         0.014196   
    424. D(Ni  3,C  19,C  18,H  52)    163.4042         0.014196   
    425. D(C  20,C  19,Ni  3,C   4)    -37.6873         0.010000   
    426. D(C  20,C  19,Ni  3,O   2)   -164.3529         0.010000   
    427. D(C  20,C  19,Ni  3,C   1)   -175.9783         0.010000   
    428. D(C  18,C  19,Ni  3,C  33)    -28.1383         0.010000   
    429. D(C  18,C  19,Ni  3,N  32)    -45.5352         0.010000   
    430. D(C  18,C  19,Ni  3,C  24)   -172.0755         0.010000   
    431. D(C  18,C  19,Ni  3,N  23)    179.1850         0.010000   
    432. D(C  18,C  19,Ni  3,C  12)     81.6757         0.010000   
    433. D(C  18,C  19,Ni  3,C   4)    123.4459         0.010000   
    434. D(C  18,C  19,Ni  3,O   2)     -3.2197         0.010000   
    435. D(C  18,C  19,Ni  3,C   1)    -14.8451         0.010000   
    436. D(C  20,C  19,C  18,H  54)   -159.5321         0.014196   
    437. D(C  18,C  19,Ni  3,N   5)    -68.1507         0.010000   
    438. D(H  55,C  20,C  19,C  18)     -0.5660         0.027667   
    439. D(H  55,C  20,C  19,Ni  3)    169.5281         0.027667   
    440. D(C  21,C  20,C  19,N  32)     -4.3728         0.027667   
    441. D(C  21,C  20,C  19,C  18)    167.9679         0.027667   
    442. D(C  21,C  20,C  19,Ni  3)    -21.9380         0.027667   
    443. D(N  23,C  21,C  20,H  55)   -173.8521         0.024359   
    444. D(N  23,C  21,C  20,C  19)     17.5958         0.024359   
    445. D(C  22,C  21,C  20,H  55)     11.3226         0.024359   
    446. D(C  22,C  21,C  20,C  19)   -157.2295         0.024359   
    447. D(H  58,C  22,C  21,C  20)    -81.3906         0.013287   
    448. D(H  57,C  22,C  21,N  23)    -17.2252         0.013287   
    449. D(H  57,C  22,C  21,C  20)    157.5016         0.013287   
    450. D(H  56,C  22,C  21,N  23)   -138.7453         0.013287   
    451. D(H  56,C  22,C  21,C  20)     35.9815         0.013287   
    452. D(C  24,N  23,C  21,C  20)   -167.5783         0.043375   
    453. D(Ni  3,N  23,C  21,C  22)   -178.0531         0.043375   
    454. D(Ni  3,N  23,C  21,C  20)      7.5008         0.043375   
    455. D(C  24,N  23,Ni  3,C  12)    -75.1385         0.010000   
    456. D(C  24,N  23,Ni  3,N   5)     -9.4559         0.010000   
    457. D(C  24,N  23,Ni  3,C   4)    -40.2438         0.010000   
    458. D(C  24,N  23,Ni  3,C   1)      2.4821         0.010000   
    459. D(C  21,N  23,Ni  3,C  33)    -37.6349         0.010000   
    460. D(C  21,N  23,Ni  3,N  32)    -30.9915         0.010000   
    461. D(C  21,N  23,Ni  3,C  24)   -175.2109         0.010000   
    462. D(C  21,N  23,Ni  3,C  19)    -14.3575         0.010000   
    463. D(C  21,N  23,Ni  3,C  12)    109.6506         0.010000   
    464. D(C  21,N  23,Ni  3,N   5)    175.3332         0.010000   
    465. D(C  21,N  23,Ni  3,C   4)    144.5453         0.010000   
    466. D(C  21,N  23,Ni  3,C   1)   -172.7288         0.010000   
    467. D(C  24,N  23,O   2,C   1)     -1.0217         0.010000   
    468. D(C  24,N  23,C  21,C  22)      6.8678         0.043375   
    469. D(C  21,N  23,O   2,C   1)   -175.1018         0.010000   
    470. D(C  30,C  24,N  23,C  21)    -69.6193         0.021838   
    471. D(C  25,C  24,N  23,C  21)    109.9366         0.021838   
    472. D(C  25,C  24,N  23,Ni  3)    -65.6034         0.021838   
    473. D(Ni  3,C  24,N  23,C  21)    175.5400         0.021838   
    474. D(C  25,C  24,Ni  3,N   5)    -63.6025         0.010000   
    475. D(C  25,C  24,Ni  3,C   4)    -97.8325         0.010000   
    476. D(C  25,C  24,Ni  3,O   2)    -50.8850         0.010000   
    477. D(C  25,C  24,Ni  3,C   1)    -53.2236         0.010000   
    478. D(N  23,C  24,Ni  3,C  33)    -58.3060         0.010000   
    479. D(N  23,C  24,Ni  3,N  32)    -39.3160         0.010000   
    480. D(N  23,C  24,Ni  3,C  19)    -18.5716         0.010000   
    481. D(N  23,C  24,Ni  3,C  12)    110.2368         0.010000   
    482. D(N  23,C  24,Ni  3,N   5)    171.0646         0.010000   
    483. D(N  23,C  24,Ni  3,C   4)    136.8345         0.010000   
    484. D(C  30,C  24,N  23,Ni  3)    114.8407         0.021838   
    485. D(N  23,C  24,Ni  3,O   2)   -176.2180         0.010000   
    486. D(N  23,C  24,Ni  3,C   1)   -178.5566         0.010000   
    487. D(C  27,C  25,C  24,N  23)   -177.7150         0.024606   
    488. D(C  27,C  25,C  24,Ni  3)    148.6006         0.024606   
    489. D(C  26,C  25,C  24,C  30)    178.2412         0.024606   
    490. D(C  26,C  25,C  24,N  23)     -1.3250         0.024606   
    491. D(C  26,C  25,C  24,Ni  3)    -35.0094         0.024606   
    492. D(H  61,C  26,C  25,C  24)     43.4939         0.013199   
    493. D(H  60,C  26,C  25,C  27)    -18.8775         0.013199   
    494. D(H  60,C  26,C  25,C  24)    164.7745         0.013199   
    495. D(H  59,C  26,C  25,C  27)    100.1149         0.013199   
    496. D(H  59,C  26,C  25,C  24)    -76.2331         0.013199   
    497. D(H  62,C  27,C  25,C  26)      1.4829         0.028424   
    498. D(H  62,C  27,C  25,C  24)    177.8640         0.028424   
    499. D(C  28,C  27,C  25,C  26)   -177.6728         0.028424   
    500. D(C  28,C  27,C  25,C  24)     -1.2917         0.028424   
    501. D(H  63,C  28,C  27,H  62)      0.9848         0.027793   
    502. D(H  63,C  28,C  27,C  25)   -179.8663         0.027793   
    503. D(C  29,C  28,C  27,H  62)   -179.0005         0.027793   
    504. D(C  29,C  28,C  27,C  25)      0.1485         0.027793   
    505. D(H  64,C  29,C  28,H  63)      0.2290         0.028442   
    506. D(H  64,C  29,C  28,C  27)   -179.7858         0.028442   
    507. D(C  30,C  29,C  28,H  63)   -179.5303         0.028442   
    508. D(C  30,C  29,C  28,C  27)      0.4549         0.028442   
    509. D(C  31,C  30,C  29,C  28)   -178.3584         0.027377   
    510. D(C  24,C  30,C  29,H  64)   -179.6513         0.027377   
    511. D(C  24,C  30,C  29,C  28)      0.1113         0.027377   
    512. D(C  31,C  30,C  24,N  23)     -3.3291         0.024574   
    513. D(C  31,C  30,C  24,Ni  3)     42.0022         0.024574   
    514. D(C  29,C  30,C  24,C  25)     -1.2631         0.024574   
    515. D(C  29,C  30,C  24,N  23)    178.2825         0.024574   
    516. D(C  31,C  30,C  29,H  64)      1.8789         0.027377   
    517. D(C  29,C  30,C  24,Ni  3)   -136.3862         0.024574   
    518. D(H  67,C  31,C  30,C  24)      1.2892         0.013151   
    519. D(H  66,C  31,C  30,C  29)     58.1518         0.013151   
    520. D(H  66,C  31,C  30,C  24)   -120.2410         0.013151   
    521. D(H  65,C  31,C  30,C  29)    -58.8236         0.013151   
    522. D(H  65,C  31,C  30,C  24)    122.7836         0.013151   
    523. D(C  33,N  32,C   4,H  41)   -164.8268         0.010000   
    524. D(C  33,N  32,C   4,C  12)     77.0578         0.010000   
    525. D(C  33,N  32,C   4,N   5)    -44.2361         0.010000   
    526. D(C  19,N  32,C   4,C  12)    -70.8076         0.010000   
    527. D(C  19,N  32,C   4,N   5)    167.8984         0.010000   
    528. D(C  33,N  32,Ni  3,C  19)    150.4067         0.010000   
    529. D(C  33,N  32,Ni  3,C  12)     78.0145         0.010000   
    530. D(C  33,N  32,Ni  3,N   5)    -36.4814         0.010000   
    531. D(C  33,N  32,Ni  3,O   2)     10.3350         0.010000   
    532. D(C  33,N  32,Ni  3,C   1)     -5.8891         0.010000   
    533. D(C  19,N  32,Ni  3,C  33)   -150.4067         0.010000   
    534. D(C  19,N  32,Ni  3,C  24)     59.2601         0.010000   
    535. D(C  19,N  32,Ni  3,N  23)     42.4166         0.010000   
    536. D(C  19,N  32,C   4,H  41)     47.3077         0.010000   
    537. D(C  19,N  32,Ni  3,C  12)    -72.3922         0.010000   
    538. D(C  19,N  32,Ni  3,N   5)    173.1118         0.010000   
    539. D(C  19,N  32,Ni  3,O   2)   -140.0718         0.010000   
    540. D(Ni  3,N  32,C  19,C  18)    156.3336         0.043793   
    541. D(C  19,N  32,Ni  3,C   1)   -156.2958         0.010000   
    542. D(C  33,N  32,C  19,C  20)    178.6780         0.043793   
    543. D(C  33,N  32,C  19,C  18)      6.7786         0.043793   
    544. D(C  33,N  32,C  19,Ni  3)   -149.5550         0.043793   
    545. D(Ni  3,N  32,C  19,C  20)    -31.7670         0.043793   
    546. D(C  39,C  33,N  32,C  19)   -111.5077         0.023744   
    547. D(C  39,C  33,N  32,Ni  3)     97.0147         0.023744   
    548. D(C  34,C  33,N  32,C  19)     69.2829         0.023744   
    549. D(C  34,C  33,N  32,Ni  3)    -82.1946         0.023744   
    550. D(Ni  3,C  33,N  32,C  19)    151.4776         0.023744   
    551. D(C  34,C  33,Ni  3,N   5)    -87.8348         0.010000   
    552. D(C  34,C  33,Ni  3,C   4)    -55.0383         0.010000   
    553. D(C  34,C  33,Ni  3,O   2)    -53.3719         0.010000   
    554. D(C  34,C  33,Ni  3,C   1)    -70.5672         0.010000   
    555. D(N  32,C  33,Ni  3,C  24)     40.5775         0.010000   
    556. D(N  32,C  33,Ni  3,N  23)     14.5136         0.010000   
    557. D(N  32,C  33,Ni  3,C  19)    -15.2772         0.010000   
    558. D(N  32,C  33,Ni  3,C  12)   -125.2735         0.010000   
    559. D(N  32,C  33,Ni  3,N   5)    157.2190         0.010000   
    560. D(N  32,C  33,Ni  3,C   4)   -169.9845         0.010000   
    561. D(N  32,C  33,Ni  3,O   2)   -168.3180         0.010000   
    562. D(N  32,C  33,Ni  3,C   1)    174.4867         0.010000   
    563. D(C  36,C  34,C  33,N  32)    178.5680         0.022677   
    564. D(C  36,C  34,C  33,Ni  3)    138.5501         0.022677   
    565. D(C  35,C  34,C  33,C  39)   -176.6087         0.022677   
    566. D(C  35,C  34,C  33,N  32)      2.5996         0.022677   
    567. D(C  35,C  34,C  33,Ni  3)    -37.4183         0.022677   
    568. D(H  70,C  35,C  34,C  33)     10.3534         0.013374   
    569. D(H  69,C  35,C  34,C  36)     72.5005         0.013374   
    570. D(H  69,C  35,C  34,C  33)   -111.5467         0.013374   
    571. D(H  68,C  35,C  34,C  36)    -44.7816         0.013374   
    572. D(H  68,C  35,C  34,C  33)    131.1712         0.013374   
    573. D(H  71,C  36,C  34,C  35)     -2.7232         0.028250   
    574. D(H  71,C  36,C  34,C  33)   -178.8089         0.028250   
    575. D(C  37,C  36,C  34,C  35)    176.3272         0.028250   
    576. D(C  37,C  36,C  34,C  33)      0.2415         0.028250   
    577. D(H  72,C  37,C  36,H  71)     -0.6750         0.028041   
    578. D(H  72,C  37,C  36,C  34)   -179.7165         0.028041   
    579. D(C  38,C  37,C  36,H  71)    179.8167         0.028041   
    580. D(C  38,C  37,C  36,C  34)      0.7753         0.028041   
    581. D(H  73,C  38,C  37,H  72)     -2.4351         0.027270   
    582. D(H  73,C  38,C  37,C  36)    177.0738         0.027270   
    583. D(C  39,C  38,C  37,H  72)    179.0652         0.027270   
    584. D(C  39,C  38,C  37,C  36)     -1.4259         0.027270   
    585. D(C  40,C  39,C  38,H  73)     -2.1581         0.028126   
    586. D(C  40,C  39,C  38,C  37)    176.3535         0.028126   
    587. D(C  33,C  39,C  38,H  73)   -177.4950         0.028126   
    588. D(C  33,C  39,C  38,C  37)      1.0166         0.028126   
    589. D(C  40,C  39,C  33,N  32)      5.5910         0.024872   
    590. D(C  40,C  39,C  33,Ni  3)     48.9594         0.024872   
    591. D(C  38,C  39,C  33,C  34)      0.0219         0.024872   
    592. D(C  38,C  39,C  33,N  32)   -179.1859         0.024872   
    593. D(C  38,C  39,C  33,Ni  3)   -135.8176         0.024872   
    594. D(H  76,C  40,C  39,C  33)   -107.1071         0.013244   
    595. D(H  75,C  40,C  39,C  38)   -160.3887         0.013244   
    596. D(H  75,C  40,C  39,C  33)     14.8087         0.013244   
    597. D(H  74,C  40,C  39,C  38)    -39.8051         0.013244   
    598. D(H  74,C  40,C  39,C  33)    135.3923         0.013244   
    -----------------------------------------------------------------

Number of atoms                         .... 77
Number of degrees of freedom            .... 598


         *************************************************************
         *                GEOMETRY OPTIMIZATION CYCLE   1            *
         *************************************************************
---------------------------------
CARTESIAN COORDINATES (ANGSTROEM)
---------------------------------
  O     4.689636   -5.296997   -5.392522
  C     4.149519   -5.341759   -4.358242
  O     4.296514   -5.080979   -3.174137
  Ni    2.681138   -5.163090   -2.315581
  C     2.242189   -6.716729   -3.389100
  N     2.539669   -5.960733   -4.425775
  C     1.707678   -5.684604   -5.497433
  C     0.721571   -6.598677   -5.896407
  C    -0.049595   -6.330772   -7.007326
  C     0.140110   -5.159523   -7.729671
  C     1.119975   -4.254649   -7.341603
  C     1.903240   -4.509632   -6.235160
  C     3.286150   -7.500681   -2.690166
  C     3.219576   -7.759979   -1.309693
  C     4.180690   -8.548024   -0.701849
  C     5.204842   -9.105167   -1.453106
  C     5.266617   -8.872750   -2.820369
  C     4.329862   -8.067500   -3.437430
  C     3.735901   -2.968968    1.079423
  C     2.928414   -3.747147    0.089631
  C     1.755998   -4.332450    0.575863
  C     0.757929   -4.886058   -0.240842
  C    -0.604201   -4.976236    0.369949
  N     1.001778   -5.201397   -1.499998
  C    -0.090921   -5.503287   -2.352239
  C    -0.405926   -4.574758   -3.369407
  C     0.381567   -3.309336   -3.503399
  C    -1.494697   -4.812759   -4.189352
  C    -2.259466   -5.959714   -4.041247
  C    -1.935388   -6.879773   -3.060118
  C    -0.859962   -6.679486   -2.205128
  C    -0.551911   -7.739708   -1.194213
  N     3.221348   -3.751216   -1.207725
  C     4.409668   -3.113282   -1.609701
  C     5.670134   -3.677052   -1.263933
  C     5.782934   -4.971933   -0.526073
  C     6.823280   -3.045529   -1.697505
  C     6.766484   -1.883707   -2.449912
  C     5.534069   -1.326737   -2.766131
  C     4.349816   -1.925017   -2.369004
  C     3.050228   -1.244635   -2.662475
  H     1.237269   -7.143878   -3.346704
  H     0.605515   -7.537483   -5.376230
  H    -0.789362   -7.048126   -7.325738
  H    -0.462608   -4.960970   -8.601692
  H     1.275786   -3.350950   -7.909250
  H     2.661366   -3.803168   -5.934553
  H     2.408115   -7.358457   -0.711708
  H     4.125021   -8.735572    0.359098
  H     5.946626   -9.726658   -0.977392
  H     6.047405   -9.323235   -3.412599
  H     4.373892   -7.912889   -4.505542
  H     3.078835   -2.427880    1.756365
  H     4.326129   -3.653977    1.687183
  H     4.409197   -2.265128    0.599413
  H     1.523020   -4.192166    1.619030
  H    -0.779563   -4.112310    1.006733
  H    -1.389568   -5.030475   -0.377429
  H    -0.668513   -5.858277    1.006665
  H     0.079469   -2.602698   -2.729530
  H     0.197642   -2.847931   -4.469237
  H     1.464120   -3.492440   -3.395052
  H    -1.754166   -4.085768   -4.942489
  H    -3.103868   -6.134342   -4.687873
  H    -2.526433   -7.774999   -2.944526
  H    -1.415402   -7.894055   -0.548911
  H    -0.363461   -8.689905   -1.693674
  H     0.305961   -7.500094   -0.575348
  H     6.497019   -5.619221   -1.031704
  H     6.169506   -4.794805    0.477803
  H     4.831601   -5.501290   -0.452541
  H     7.779948   -3.481363   -1.453348
  H     7.675359   -1.408344   -2.782620
  H     5.491376   -0.396375   -3.311662
  H     3.153920   -0.173352   -2.505135
  H     2.249683   -1.612963   -2.027661
  H     2.777100   -1.386760   -3.707650

----------------------------
CARTESIAN COORDINATES (A.U.)
----------------------------
  NO LB    ZA    FRAG    MASS        X           Y           Z
   0 O   8.0000    0    15.999    8.862128  -10.009874  -10.190390
   1 C   6.0000    0    12.011    7.841454  -10.094462   -8.235884
   2 O   8.0000    0    15.999    8.119235   -9.601659   -5.998250
   3 Ni 28.0000    0    58.700    5.066617   -9.756826   -4.375814
   4 C   6.0000    0    12.011    4.237123  -12.692778   -6.404471
   5 N   7.0000    0    14.007    4.799279  -11.264153   -8.363503
   6 C   6.0000    0    12.011    3.227044  -10.742345  -10.388643
   7 C   6.0000    0    12.011    1.363572  -12.469692  -11.142594
   8 C   6.0000    0    12.011   -0.093721  -11.963425  -13.241927
   9 C   6.0000    0    12.011    0.264770   -9.750085  -14.606961
  10 C   6.0000    0    12.011    2.116446   -8.040121  -13.873619
  11 C   6.0000    0    12.011    3.596602   -8.521969  -11.782745
  12 C   6.0000    0    12.011    6.209924  -14.174233   -5.083677
  13 C   6.0000    0    12.011    6.084117  -14.664235   -2.474961
  14 C   6.0000    0    12.011    7.900359  -16.153424   -1.326302
  15 C   6.0000    0    12.011    9.835726  -17.206272   -2.745972
  16 C   6.0000    0    12.011    9.952464  -16.767068   -5.329725
  17 C   6.0000    0    12.011    8.182253  -15.245366   -6.495801
  18 C   6.0000    0    12.011    7.059830   -5.610536    2.039814
  19 C   6.0000    0    12.011    5.533900   -7.081082    0.169378
  20 C   6.0000    0    12.011    3.318355   -8.187144    1.088223
  21 C   6.0000    0    12.011    1.432278   -9.233311   -0.455125
  22 C   6.0000    0    12.011   -1.141774   -9.403723    0.699102
  23 N   7.0000    0    14.007    1.893086   -9.829216   -2.834585
  24 C   6.0000    0    12.011   -0.171816  -10.399705   -4.445088
  25 C   6.0000    0    12.011   -0.767089   -8.645040   -6.367256
  26 C   6.0000    0    12.011    0.721057   -6.253739   -6.620465
  27 C   6.0000    0    12.011   -2.824568   -9.094796   -7.916728
  28 C   6.0000    0    12.011   -4.269772  -11.262227   -7.636850
  29 C   6.0000    0    12.011   -3.657353  -13.000887   -5.782785
  30 C   6.0000    0    12.011   -1.625093  -12.622399   -4.167088
  31 C   6.0000    0    12.011   -1.042961  -14.625928   -2.256736
  32 N   7.0000    0    14.007    6.087466   -7.088771   -2.282269
  33 C   6.0000    0    12.011    8.333065   -5.883250   -3.041894
  34 C   6.0000    0    12.011   10.715000   -6.948621   -2.388487
  35 C   6.0000    0    12.011   10.928162   -9.395592   -0.994134
  36 C   6.0000    0    12.011   12.894131   -5.755216   -3.207820
  37 C   6.0000    0    12.011   12.786802   -3.559690   -4.629663
  38 C   6.0000    0    12.011   10.457875   -2.507170   -5.227230
  39 C   6.0000    0    12.011    8.219961   -3.637755   -4.476769
  40 C   6.0000    0    12.011    5.764096   -2.352019   -5.031349
  41 H   1.0000    0     1.008    2.338100  -13.499973   -6.324354
  42 H   1.0000    0     1.008    1.144258  -14.243779  -10.159602
  43 H   1.0000    0     1.008   -1.491678  -13.319028  -13.843639
  44 H   1.0000    0     1.008   -0.874202   -9.374875  -16.254842
  45 H   1.0000    0     1.008    2.410886   -6.332378  -14.946316
  46 H   1.0000    0     1.008    5.029253   -7.186946  -11.214680
  47 H   1.0000    0     1.008    4.550678  -13.905468   -1.344933
  48 H   1.0000    0     1.008    7.795160  -16.507839    0.678597
  49 H   1.0000    0     1.008   11.237495  -18.380720   -1.847003
  50 H   1.0000    0     1.008   11.427939  -17.618361   -6.448878
  51 H   1.0000    0     1.008    8.265458  -14.953193   -8.514240
  52 H   1.0000    0     1.008    5.818155   -4.588028    3.319049
  53 H   1.0000    0     1.008    8.175199   -6.905016    3.188314
  54 H   1.0000    0     1.008    8.332175   -4.280472    1.132726
  55 H   1.0000    0     1.008    2.878091   -7.922046    3.059523
  56 H   1.0000    0     1.008   -1.473161   -7.771140    1.902450
  57 H   1.0000    0     1.008   -2.625903   -9.506220   -0.713237
  58 H   1.0000    0     1.008   -1.263306  -11.070539    1.902321
  59 H   1.0000    0     1.008    0.150175   -4.918386   -5.158064
  60 H   1.0000    0     1.008    0.373489   -5.381810   -8.445634
  61 H   1.0000    0     1.008    2.766786   -6.599755   -6.415718
  62 H   1.0000    0     1.008   -3.314893   -7.720983   -9.339951
  63 H   1.0000    0     1.008   -5.865460  -11.592226   -8.858796
  64 H   1.0000    0     1.008   -4.774266  -14.692619   -5.564348
  65 H   1.0000    0     1.008   -2.674722  -14.917602   -1.037291
  66 H   1.0000    0     1.008   -0.686842  -16.421541   -3.200580
  67 H   1.0000    0     1.008    0.578182  -14.173124   -1.087250
  68 H   1.0000    0     1.008   12.277587  -10.618789   -1.949638
  69 H   1.0000    0     1.008   11.658677   -9.060868    0.902917
  70 H   1.0000    0     1.008    9.130403  -10.395931   -0.855179
  71 H   1.0000    0     1.008   14.701971   -6.578823   -2.746430
  72 H   1.0000    0     1.008   14.504326   -2.661384   -5.258390
  73 H   1.0000    0     1.008   10.377197   -0.749040   -6.258134
  74 H   1.0000    0     1.008    5.960045   -0.327588   -4.734019
  75 H   1.0000    0     1.008    4.251285   -3.048058   -3.831724
  76 H   1.0000    0     1.008    5.247958   -2.620597   -7.006443

      -----------------------------------------------------------      
     |                   =====================                   |     
     |                           x T B                           |     
     |                   =====================                   |     
     |                         S. Grimme                         |     
     |          Mulliken Center for Theoretical Chemistry        |     
     |                    University of Bonn                     |     
      -----------------------------------------------------------      

   * xtb version 6.7.1 (edcfbbe) compiled by 'albert@albert-system' on 2024-07-22

   xtb is free software: you can redistribute it and/or modify it under
   the terms of the GNU Lesser General Public License as published by
   the Free Software Foundation, either version 3 of the License, or
   (at your option) any later version.
   
   xtb is distributed in the hope that it will be useful,
   but WITHOUT ANY WARRANTY; without even the implied warranty of
   MERCHANTABILITY or FITNESS FOR A PARTICULAR PURPOSE.  See the
   GNU Lesser General Public License for more details.
   
   Cite this work as:
   * C. Bannwarth, E. Caldeweyher, S. Ehlert, A. Hansen, P. Pracht,
     J. Seibert, S. Spicher, S. Grimme, WIREs Comput. Mol. Sci., 2020, 11,
     e01493. DOI: 10.1002/wcms.1493
   
   for GFN2-xTB:
   * C. Bannwarth, S. Ehlert and S. Grimme., J. Chem. Theory Comput., 2019,
     15, 1652-1671. DOI: 10.1021/acs.jctc.8b01176
   for GFN1-xTB:
   * S. Grimme, C. Bannwarth, P. Shushkov, J. Chem. Theory Comput., 2017,
     13, 1989-2009. DOI: 10.1021/acs.jctc.7b00118
   for GFN0-xTB:
   * P. Pracht, E. Caldeweyher, S. Ehlert, S. Grimme, ChemRxiv, 2019, preprint.
     DOI: 10.26434/chemrxiv.8326202.v1
   for GFN-FF:
   * S. Spicher and S. Grimme, Angew. Chem. Int. Ed., 2020, 59, 15665-15673.
     DOI: 10.1002/anie.202004239
   
   for ALPB and GBSA implicit solvation:
   * S. Ehlert, M. Stahn, S. Spicher, S. Grimme, J. Chem. Theory Comput.,
     2021, 17, 4250-4261. DOI: 10.1021/acs.jctc.1c00471
   
   for ddCOSMO and CPCM-X implicit solvation:
   * M. Stahn, S. Ehlert, S. Grimme, J. Phys. Chem. A,
     2023, XX, XXXX-XXXX. DOI: 10.1021/acs.jpca.3c04382
   
   for DFT-D4:
   * E. Caldeweyher, C. Bannwarth and S. Grimme, J. Chem. Phys., 2017,
     147, 034112. DOI: 10.1063/1.4993215
   * E. Caldeweyher, S. Ehlert, A. Hansen, H. Neugebauer, S. Spicher,
     C. Bannwarth and S. Grimme, J. Chem. Phys., 2019, 150, 154122.
     DOI: 10.1063/1.5090222
   * E. Caldeweyher, J.-M. Mewes, S. Ehlert and S. Grimme, Phys. Chem. Chem. Phys.
     2020, 22, 8499-8512. DOI: 10.1039/D0CP00502A
   
   for sTDA-xTB:
   * S. Grimme and C. Bannwarth, J. Chem. Phys., 2016, 145, 054103.
     DOI: 10.1063/1.4959605
   
   in the mass-spec context:
   * V. Asgeirsson, C. Bauer and S. Grimme, Chem. Sci., 2017, 8, 4879.
     DOI: 10.1039/c7sc00601b
   * J. Koopman and S. Grimme, ACS Omega 2019, 4, 12, 15120-15133.
     DOI: 10.1021/acsomega.9b02011
   
   for metadynamics refer to:
   * S. Grimme, J. Chem. Theory Comput., 2019, 155, 2847-2862
     DOI: 10.1021/acs.jctc.9b00143
   
   for SPH calculations refer to:
   * S. Spicher and S. Grimme, J. Chem. Theory Comput., 2021, 17, 1701-1714
     DOI: 10.1021/acs.jctc.0c01306
   
   for ONIOM refer to:
   * C. Plett, A. Katbashev, S. Ehlert, S. Grimme, M. Bursch,
     Phys. Chem. Chem. Phys., 2023, 25, 17860-17868. DOI: 10.1039/D3CP02178E
   
   for DIPRO refer to:
   * J. Kohn, N. Gildemeister, S. Grimme, D. Fazzi, A. Hansen,
     J. Chem. Phys., 2023, just accepted.
   
   for PTB refer to:
   * S. Grimme, M. Mueller, A. Hansen, J. Chem. Phys., 2023, 158, 124111.
     DOI: 10.1063/5.0137838
   
   with help from (in alphabetical order)
   P. Atkinson, C. Bannwarth, F. Bohle, G. Brandenburg, E. Caldeweyher
   M. Checinski, S. Dohm, S. Ehlert, S. Ehrlich, I. Gerasimov, C. Hölzer
   A. Katbashev, J. Kohn, J. Koopman, C. Lavigne, S. Lehtola, F. März, M. Müller,
   F. Musil, H. Neugebauer, J. Pisarek, C. Plett, P. Pracht, F. Pultar,
   J. Seibert, P. Shushkov, S. Spicher, M. Stahn, M. Steiner, T. Strunk,
   J. Stückrath, T. Rose, and J. Unsleber
   
 * started run on 2026/01/28 at 11:52:50.353     
   ID    Z sym.   atoms
    1    8 O      1, 3
    2    6 C      2, 5, 7-23, 25-32, 34-41
    3   28 Ni     4
    4    7 N      6, 24, 33
    5    1 H      42-77

           -------------------------------------------------
          |                Calculation Setup                |
           -------------------------------------------------

          program call               : /groups/kemi/hteahan/opt/orca_6_1_0_linux_x86-64_shared_openmpi418/otool_xtb 17_4_confsstruct_1_XTB.xyz --grad -c 0 -u 0 -P 8 --namespace 17_4_confsstruct_1 --input 17_4_confsstruct_1_XTB.input.tmp --acc 0.200000
          hostname                   : node068
          calculation namespace      : 17_4_confsstruct_1
          coordinate file            : 17_4_confsstruct_1_XTB.xyz
          omp threads                :                     8


molecular fragmentation (1/2 indicates fragments):
111111222222111111222222222222222222222221222221111122222222222222222222
22222
# atoms in fragment 1/2:    18    59
 fragment masses (1/2) :      206.83      382.54
CMA distance (Bohr)    :   5.137
constraining FC (au)   :  0.0500

           -------------------------------------------------
          |                 G F N 2 - x T B                 |
           -------------------------------------------------

        Reference                      10.1021/acs.jctc.8b01176
      * Hamiltonian:
        H0-scaling (s, p, d)           1.850000    2.230000    2.230000
        zeta-weighting                 0.500000
      * Dispersion:
        s8                             2.700000
        a1                             0.520000
        a2                             5.000000
        s9                             5.000000
      * Repulsion:
        kExp                           1.500000    1.000000
        rExp                           1.000000
      * Coulomb:
        alpha                          2.000000
        third order                    shell-resolved
        anisotropic                    true
        a3                             3.000000
        a5                             4.000000
        cn-shift                       1.200000
        cn-exp                         4.000000
        max-rad                        5.000000


          ...................................................
          :                      SETUP                      :
          :.................................................:
          :  # basis functions                 206          :
          :  # atomic orbitals                 205          :
          :  # shells                          119          :
          :  # electrons                       213          :
          :  max. iterations                   250          :
          :  Hamiltonian                  GFN2-xTB          :
          :  restarted?                      false          :
          :  GBSA solvation                  false          :
          :  PC potential                    false          :
          :  electronic temp.          300.0000000     K    :
          :  accuracy                    0.2000000          :
          :  -> integral cutoff          0.3198970E+02      :
          :  -> integral neglect         0.2000000E-08      :
          :  -> SCF convergence          0.2000000E-06 Eh   :
          :  -> wf. convergence          0.2000000E-04 e    :
          :  Broyden damping             0.4000000          :
          :  net charge                          0          :
          :  unpaired electrons                  0          :
          ...................................................

 iter      E             dE          RMSdq      gap      omega  full diag
   1   -116.6930828 -0.116693E+03  0.444E+00    1.40       0.0  T
   2   -116.8664365 -0.173354E+00  0.236E+00    1.24       1.0  T
   3   -116.8259798  0.404567E-01  0.138E+00    1.08       1.0  T
   4   -116.8882937 -0.623139E-01  0.656E-01    1.29       1.0  T
   5   -116.9091728 -0.208791E-01  0.316E-01    1.19       1.0  T
   6   -116.9120631 -0.289023E-02  0.171E-01    1.20       1.0  T
   7   -116.9123598 -0.296735E-03  0.115E-01    1.19       1.0  T
   8   -116.9124905 -0.130751E-03  0.507E-02    1.18       1.0  T
   9   -116.9125452 -0.546183E-04  0.301E-02    1.19       1.0  T
  10   -116.9125661 -0.209805E-04  0.166E-02    1.18       1.0  T
[...]


The first frequency considered to be a vibration is 6
The total number of vibrations considered is 225


--------------------------
THERMOCHEMISTRY AT 298.15K
--------------------------

Temperature         ...   298.15 K
Pressure            ...     1.00 atm
Total Mass          ...   589.39 AMU
Quasi RRHO          ...     True
Cut-Off Frequency   ...     1.00 cm^-1

Throughout the following assumptions are being made:
  (1) The electronic state is orbitally nondegenerate
  (2) There are no thermally accessible electronically excited states
  (3) Hindered rotations indicated by low frequency modes are not
      treated as such but are treated as vibrations and this may
      cause some error
  (4) All equations used are the standard statistical mechanics
      equations for an ideal gas
  (5) All vibrations are strictly harmonic

freq.      16.36  E(vib)   ...       0.57 
freq.      22.85  E(vib)   ...       0.56 
freq.      30.46  E(vib)   ...       0.55 
freq.      31.47  E(vib)   ...       0.55 
freq.      39.41  E(vib)   ...       0.54 
freq.      47.14  E(vib)   ...       0.53 
freq.      49.30  E(vib)   ...       0.52 
freq.      52.94  E(vib)   ...       0.52 
freq.      57.98  E(vib)   ...       0.51 
freq.      68.08  E(vib)   ...       0.50 
freq.      73.73  E(vib)   ...       0.49 
freq.      75.97  E(vib)   ...       0.49 
freq.      79.13  E(vib)   ...       0.49 
freq.      84.52  E(vib)   ...       0.48 
freq.      96.05  E(vib)   ...       0.47 
freq.      99.97  E(vib)   ...       0.46 
freq.     110.73  E(vib)   ...       0.45 
freq.     112.30  E(vib)   ...       0.45 
freq.     119.11  E(vib)   ...       0.44 
freq.     121.80  E(vib)   ...       0.44 
freq.     133.10  E(vib)   ...       0.42 
freq.     138.13  E(vib)   ...       0.42 
freq.     140.56  E(vib)   ...       0.41 
freq.     146.79  E(vib)   ...       0.41 
freq.     155.93  E(vib)   ...       0.40 
freq.     178.65  E(vib)   ...       0.37 
freq.     187.30  E(vib)   ...       0.36 
freq.     190.71  E(vib)   ...       0.36 
freq.     194.85  E(vib)   ...       0.36 
freq.     198.49  E(vib)   ...       0.35 
freq.     205.07  E(vib)   ...       0.35 
freq.     213.36  E(vib)   ...       0.34 
freq.     226.57  E(vib)   ...       0.33 
freq.     238.02  E(vib)   ...       0.32 
freq.     240.34  E(vib)   ...       0.31 
freq.     252.99  E(vib)   ...       0.30 
freq.     276.90  E(vib)   ...       0.28 
freq.     289.10  E(vib)   ...       0.27 
freq.     296.34  E(vib)   ...       0.27 
freq.     321.31  E(vib)   ...       0.25 
freq.     327.41  E(vib)   ...       0.24 
freq.     328.37  E(vib)   ...       0.24 
freq.     340.38  E(vib)   ...       0.23 
freq.     348.59  E(vib)   ...       0.23 
freq.     365.75  E(vib)   ...       0.22 
freq.     370.21  E(vib)   ...       0.21 
freq.     372.58  E(vib)   ...       0.21 
freq.     379.16  E(vib)   ...       0.21 
freq.     383.76  E(vib)   ...       0.20 
freq.     449.15  E(vib)   ...       0.17 
freq.     461.33  E(vib)   ...       0.16 
freq.     471.25  E(vib)   ...       0.15 
freq.     473.50  E(vib)   ...       0.15 
freq.     476.85  E(vib)   ...       0.15 
freq.     483.10  E(vib)   ...       0.15 
freq.     487.20  E(vib)   ...       0.15 
freq.     490.32  E(vib)   ...       0.15 
freq.     496.62  E(vib)   ...       0.14 
freq.     501.27  E(vib)   ...       0.14 
freq.     520.16  E(vib)   ...       0.13 
freq.     527.93  E(vib)   ...       0.13 
freq.     531.22  E(vib)   ...       0.13 
freq.     536.58  E(vib)   ...       0.12 
freq.     553.97  E(vib)   ...       0.12 
freq.     577.02  E(vib)   ...       0.11 
freq.     581.18  E(vib)   ...       0.11 
freq.     584.94  E(vib)   ...       0.11 
freq.     595.22  E(vib)   ...       0.10 
freq.     600.03  E(vib)   ...       0.10 
freq.     606.84  E(vib)   ...       0.10 
freq.     629.82  E(vib)   ...       0.09 
freq.     643.11  E(vib)   ...       0.09 
freq.     658.17  E(vib)   ...       0.08 
freq.     676.59  E(vib)   ...       0.08 
freq.     682.06  E(vib)   ...       0.08 
freq.     684.68  E(vib)   ...       0.07 
freq.     717.58  E(vib)   ...       0.07 
freq.     734.57  E(vib)   ...       0.06 
freq.     738.32  E(vib)   ...       0.06 
freq.     746.28  E(vib)   ...       0.06 
freq.     752.60  E(vib)   ...       0.06 
freq.     758.90  E(vib)   ...       0.06 
freq.     790.92  E(vib)   ...       0.05 
freq.     794.46  E(vib)   ...       0.05 
freq.     823.50  E(vib)   ...       0.05 
freq.     824.24  E(vib)   ...       0.04 
freq.     840.05  E(vib)   ...       0.04 
freq.     845.98  E(vib)   ...       0.04 
freq.     854.85  E(vib)   ...       0.04 
freq.     861.56  E(vib)   ...       0.04 
freq.     879.43  E(vib)   ...       0.04 
freq.     888.10  E(vib)   ...       0.04 
freq.     892.05  E(vib)   ...       0.03 
freq.     893.47  E(vib)   ...       0.03 
freq.     893.88  E(vib)   ...       0.03 
freq.     919.33  E(vib)   ...       0.03 
freq.     919.59  E(vib)   ...       0.03 
freq.     921.27  E(vib)   ...       0.03 
freq.     922.20  E(vib)   ...       0.03 
freq.     926.57  E(vib)   ...       0.03 
freq.     930.29  E(vib)   ...       0.03 
freq.     952.62  E(vib)   ...       0.03 
freq.     954.03  E(vib)   ...       0.03 
freq.     955.95  E(vib)   ...       0.03 
freq.     974.16  E(vib)   ...       0.03 
freq.     976.26  E(vib)   ...       0.03 
freq.     984.18  E(vib)   ...       0.02 
freq.     999.92  E(vib)   ...       0.02 
freq.    1002.52  E(vib)   ...       0.02 
freq.    1004.52  E(vib)   ...       0.02 
freq.    1016.78  E(vib)   ...       0.02 
freq.    1023.48  E(vib)   ...       0.02 
freq.    1027.76  E(vib)   ...       0.02 
freq.    1029.58  E(vib)   ...       0.02 
freq.    1032.58  E(vib)   ...       0.02 
freq.    1034.53  E(vib)   ...       0.02 
freq.    1038.70  E(vib)   ...       0.02 
freq.    1043.50  E(vib)   ...       0.02 
freq.    1047.91  E(vib)   ...       0.02 
freq.    1082.43  E(vib)   ...       0.02 
freq.    1086.17  E(vib)   ...       0.02 
freq.    1104.46  E(vib)   ...       0.02 
freq.    1124.71  E(vib)   ...       0.01 
freq.    1126.60  E(vib)   ...       0.01 
freq.    1128.39  E(vib)   ...       0.01 
freq.    1132.09  E(vib)   ...       0.01 
freq.    1166.94  E(vib)   ...       0.01 
freq.    1180.81  E(vib)   ...       0.01 
freq.    1181.35  E(vib)   ...       0.01 
freq.    1183.09  E(vib)   ...       0.01 
freq.    1188.79  E(vib)   ...       0.01 
freq.    1189.49  E(vib)   ...       0.01 
freq.    1199.66  E(vib)   ...       0.01 
freq.    1203.36  E(vib)   ...       0.01 
freq.    1208.01  E(vib)   ...       0.01 
freq.    1241.50  E(vib)   ...       0.01 
freq.    1243.00  E(vib)   ...       0.01 
freq.    1245.14  E(vib)   ...       0.01 
freq.    1254.71  E(vib)   ...       0.01 
freq.    1280.77  E(vib)   ...       0.01 
freq.    1284.86  E(vib)   ...       0.01 
freq.    1287.28  E(vib)   ...       0.01 
freq.    1289.70  E(vib)   ...       0.01 
freq.    1292.56  E(vib)   ...       0.01 
freq.    1307.81  E(vib)   ...       0.01 
freq.    1314.34  E(vib)   ...       0.01 
freq.    1316.48  E(vib)   ...       0.01 
freq.    1321.50  E(vib)   ...       0.01 
freq.    1327.75  E(vib)   ...       0.01 
freq.    1380.68  E(vib)   ...       0.01 
freq.    1388.31  E(vib)   ...       0.00 
freq.    1392.55  E(vib)   ...       0.00 
freq.    1394.88  E(vib)   ...       0.00 
freq.    1398.94  E(vib)   ...       0.00 
freq.    1400.16  E(vib)   ...       0.00 
freq.    1401.70  E(vib)   ...       0.00 
freq.    1421.63  E(vib)   ...       0.00 
freq.    1426.58  E(vib)   ...       0.00 
freq.    1430.56  E(vib)   ...       0.00 
freq.    1436.12  E(vib)   ...       0.00 
freq.    1439.97  E(vib)   ...       0.00 
freq.    1440.97  E(vib)   ...       0.00 
freq.    1445.65  E(vib)   ...       0.00 
freq.    1459.43  E(vib)   ...       0.00 
freq.    1461.50  E(vib)   ...       0.00 
freq.    1462.92  E(vib)   ...       0.00 
freq.    1467.06  E(vib)   ...       0.00 
freq.    1471.25  E(vib)   ...       0.00 
freq.    1472.17  E(vib)   ...       0.00 
freq.    1472.73  E(vib)   ...       0.00 
freq.    1474.36  E(vib)   ...       0.00 
freq.    1478.34  E(vib)   ...       0.00 
freq.    1481.31  E(vib)   ...       0.00 
freq.    1484.99  E(vib)   ...       0.00 
freq.    1490.23  E(vib)   ...       0.00 
freq.    1493.24  E(vib)   ...       0.00 
freq.    1495.18  E(vib)   ...       0.00 
freq.    1505.57  E(vib)   ...       0.00 
freq.    1547.90  E(vib)   ...       0.00 
freq.    1559.93  E(vib)   ...       0.00 
freq.    1571.83  E(vib)   ...       0.00 
freq.    1572.72  E(vib)   ...       0.00 
freq.    1572.98  E(vib)   ...       0.00 
freq.    1573.93  E(vib)   ...       0.00 
freq.    1590.02  E(vib)   ...       0.00 
freq.    1591.41  E(vib)   ...       0.00 
freq.    1592.83  E(vib)   ...       0.00 
freq.    1736.46  E(vib)   ...       0.00 
freq.    1962.49  E(vib)   ...       0.00 
freq.    2831.28  E(vib)   ...       0.00 
freq.    2977.19  E(vib)   ...       0.00 
freq.    2979.59  E(vib)   ...       0.00 
freq.    2987.77  E(vib)   ...       0.00 
freq.    2993.43  E(vib)   ...       0.00 
freq.    3002.14  E(vib)   ...       0.00 
freq.    3011.59  E(vib)   ...       0.00 
freq.    3020.11  E(vib)   ...       0.00 
freq.    3021.75  E(vib)   ...       0.00 
freq.    3023.86  E(vib)   ...       0.00 
freq.    3029.56  E(vib)   ...       0.00 
freq.    3033.94  E(vib)   ...       0.00 
freq.    3037.95  E(vib)   ...       0.00 
freq.    3038.60  E(vib)   ...       0.00 
freq.    3039.74  E(vib)   ...       0.00 
freq.    3044.66  E(vib)   ...       0.00 
freq.    3044.85  E(vib)   ...       0.00 
freq.    3056.39  E(vib)   ...       0.00 
freq.    3059.76  E(vib)   ...       0.00 
freq.    3068.85  E(vib)   ...       0.00 
freq.    3073.33  E(vib)   ...       0.00 
freq.    3073.60  E(vib)   ...       0.00 
freq.    3073.65  E(vib)   ...       0.00 
freq.    3074.52  E(vib)   ...       0.00 
freq.    3079.82  E(vib)   ...       0.00 
freq.    3080.94  E(vib)   ...       0.00 
freq.    3081.34  E(vib)   ...       0.00 
freq.    3084.88  E(vib)   ...       0.00 
freq.    3086.19  E(vib)   ...       0.00 
freq.    3088.15  E(vib)   ...       0.00 
freq.    3094.01  E(vib)   ...       0.00 
freq.    3096.00  E(vib)   ...       0.00 
freq.    3097.18  E(vib)   ...       0.00 
freq.    3102.27  E(vib)   ...       0.00 
freq.    3107.42  E(vib)   ...       0.00 
freq.    3110.26  E(vib)   ...       0.00 

------------
INNER ENERGY
------------

The inner energy is: U= E(el) + E(ZPE) + E(vib) + E(rot) + E(trans)
    E(el)   - is the total energy from the electronic structure calculation
              = E(kin-el) + E(nuc-el) + E(el-el) + E(nuc-nuc)
    E(ZPE)  - the the zero temperature vibrational energy from the frequency calculation
    E(vib)  - the the finite temperature correction to E(ZPE) due to population
              of excited vibrational states
    E(rot)  - is the rotational thermal energy
    E(trans)- is the translational thermal energy

Summary of contributions to the inner energy U:
Electronic energy                ...   -115.09349032 Eh
Zero point energy                ...      0.61287467 Eh     384.58 kcal/mol
Thermal vibrational correction   ...      0.03833862 Eh      24.06 kcal/mol
Thermal rotational correction    ...      0.00141627 Eh       0.89 kcal/mol
Thermal translational correction ...      0.00141627 Eh       0.89 kcal/mol
-----------------------------------------------------------------------
Total thermal energy                   -114.43944449 Eh


Summary of corrections to the electronic energy:
(perhaps to be used in another calculation)
Total thermal correction                  0.04117117 Eh      25.84 kcal/mol
Non-thermal (ZPE) correction              0.61287467 Eh     384.58 kcal/mol
-----------------------------------------------------------------------
Total correction                          0.65404583 Eh     410.42 kcal/mol


--------
ENTHALPY
--------

The enthalpy is H = U + kB*T
                kB is Boltzmann's constant
Total thermal energy              ...   -114.43944449 Eh 
Thermal Enthalpy correction       ...      0.00094421 Eh       0.59 kcal/mol
-----------------------------------------------------------------------
Total Enthalpy                    ...   -114.43850028 Eh


WARNING (ORCA/SYM): The number of Z matrix atoms does not agree with
the number of centers in the basis set. The point group will therefore
be determined without considering basis set information.


Note: Only C1 symmetry has been detected, increase convergence thresholds 
      if your molecule has a higher symmetry. Symmetry factor of 1.0 is   
      used for the rotational entropy correction. 
 

Note: Rotational entropy computed according to Herzberg 
Infrared and Raman Spectra, Chapter V,1, Van Nostrand Reinhold, 1945 
Point Group:  C1, Symmetry Number:   1  
Rotational constants in cm-1:     0.004666     0.002742     0.002559 

Vibrational entropy computed according to the QRRHO of S. Grimme
Chem.Eur.J. 2012 18 9955 using a reference frequency of 100.0 cm-1


-------
ENTROPY
-------

The entropy contributions are T*S = T*(S(el)+S(vib)+S(rot)+S(trans))
     S(el)   - electronic entropy
     S(vib)  - vibrational entropy
     S(rot)  - rotational entropy
     S(trans)- translational entropy
The entropies will be listed as multiplied by the temperature to get
units of energy

Electronic entropy                ...      0.00000000 Eh      0.00 kcal/mol
Vibrational entropy               ...      0.06906579 Eh     43.34 kcal/mol
Rotational entropy                ...      0.01764711 Eh     11.07 kcal/mol
Translational entropy             ...      0.02138360 Eh     13.42 kcal/mol
-----------------------------------------------------------------------
Final entropy term                ...      0.10809650 Eh     67.83 kcal/mol

In case the symmetry of your molecule has not been determined correctly
or in case you have a reason to use a different symmetry number we print 
out the resulting rotational entropy values for sn=1,12:

 non-linear molecules -----------------------------------
|  sn= 1 | S(rot)=       0.01764711 Eh     11.07 kcal/mol|
|  sn= 2 | S(rot)=       0.01699265 Eh     10.66 kcal/mol|
|  sn= 3 | S(rot)=       0.01660982 Eh     10.42 kcal/mol|
|  sn= 4 | S(rot)=       0.01633820 Eh     10.25 kcal/mol|
|  sn= 5 | S(rot)=       0.01612751 Eh     10.12 kcal/mol|
|  sn= 6 | S(rot)=       0.01595536 Eh     10.01 kcal/mol|
|  sn= 7 | S(rot)=       0.01580982 Eh      9.92 kcal/mol|
|  sn= 8 | S(rot)=       0.01568374 Eh      9.84 kcal/mol|
|  sn= 9 | S(rot)=       0.01557253 Eh      9.77 kcal/mol|
|  sn=10 | S(rot)=       0.01547305 Eh      9.71 kcal/mol|
|  sn=11 | S(rot)=       0.01538306 Eh      9.65 kcal/mol|
|  sn=12 | S(rot)=       0.01530091 Eh      9.60 kcal/mol|
 linear molecules ---------------------------------------
|  Dinfh | S(rot)=       0.01096089 Eh      6.88 kcal/mol|
|  Cinfv | S(rot)=       0.01161535 Eh      7.29 kcal/mol|
 --------------------------------------------------------


-------------------
GIBBS FREE ENERGY
-------------------

The Gibbs free energy is G = H - T*S

Total enthalpy                    ...   -114.43850028 Eh 
Total entropy correction          ...     -0.10809650 Eh    -67.83 kcal/mol
-----------------------------------------------------------------------
Final Gibbs free energy         ...   -114.54659678 Eh

For completeness - the Gibbs free energy minus the electronic energy
G-E(el)                           ...      0.54689355 Eh    343.18 kcal/mol


--------------------------------
SUGGESTED CITATIONS FOR THIS RUN
--------------------------------

Below you find a list of papers that are relevant to this ORCA run
We neither can nor want to force you to cite these papers, but we appreciate if you do
You receive ORCA, which is the product of decades of hard work by many enthusiastic individuals, for free
The only thing we kindly ask in return is that you cite our papers,
We deeply appreciate it, if you show your appreciation for ORCA by not just citing the generic ORCA reference.

Please note that relegating all ORCA citations to the supporting information does *not* help us.
SI sections are not indexed - citations you put there will not count into any citation statistics
But we need these citations in order to attract the funding resources that allow us to do what we are doing

Therefore, if you are a happy ORCA user, please consider citing a few of the papers listed below in the main body of your paper

In addition to the list printed below, the program has created the file 17_4_confsstruct_1.bibtex that contains the list in bibtex format
You can import this file easily into all common literature databanks and citation aid programs


List of essential papers. We consider these as the minimum necessary citations

  1. Bannwarth, C.; Ehlert, S.; Grimme, S.
     GFN2-xTB—An Accurate and Broadly Parametrized Self-Consistent Tight-Binding Quantum Chemical Method with Multipole Electrostatics and Density-Dependent Dispersion Contributions
     J. Chem. Theory Comput. 2019 15(3), 1652-1671
     doi.org/10.1021/acs.jctc.8b01176
  2. Neese, F.
     Software update: the ORCA program system, version 6.0
     WIRES Comput. Molec. Sci. 2025 15(1), e70019
     doi.org/10.1002/wcms.7019

List of papers to cite with high priority. The work reported in these papers was absolutely
necessary for this run to complete.
Our perspective: the developers of density functionals and basis sets usually get cited in chemistry papers
Good! But without the algorithms to do something with them, the functionals or basis sets would not do anything.
Hence, in our opinion, the algorithm design and method developments papers are equally worthy of getting cited

  1. Bykov, D.; Petrenko, T.; Izsak, R.; Kossmann, S.; Becker, U.; Valeev, E.; Neese, F.
     Efficient implementation of the analytic second derivatives of Hartree-Fock and hybrid DFT energies: a detailed analysis of different approximations
     Molec. Phys. 2015 113 , 1961-1977
     doi.org/10.1080/00268976.2015.1025114
  2. Bannwarth, C.; Caldeweyher, E.; Ehlert, S.; Hansen, A.; Pracht, P.; Seibert, J.; Spicher, S.; Grimme, S.
     Extended tight-binding quantum chemistry methods
     WIRES Comput. Molec. Sci. 2020 11(2), e1493
     doi.org/10.1002/wcms.1493

List of suggested additional citations. These are papers that are important in the 'surrounding' of 
of this run, or papers that preceded the highly important papers. If you like your results we are grateful for a citation.

  1. Neese, F.
     The ORCA program system
     WIRES Comput. Molec. Sci. 2012 2(1), 73-78
     doi.org/10.1002/wcms.81
  2. Neese, F.
     Software update: the ORCA program system, version 4.0
     WIRES Comput. Molec. Sci. 2018 8(1), 1-6
     doi.org/10.1002/wcms.1327
  3. Neese, F.; Wennmohs, F.; Becker, U.; Riplinger, C.
     The ORCA quantum chemistry program package
     J. Chem. Phys. 2020 152(22), 224108
     doi.org/10.1063/5.0004608
  4. Neese, F.
     Software update: The ORCA program system—Version 5.0
     WIRES Comput. Molec. Sci. 2022 12(1), e1606
     doi.org/10.1002/wcms.1606

List of optional additional citations

  1. Neese, F.
     Approximate second-order SCF convergence for spin unrestricted wavefunctions
     Chem. Phys. Lett. 2000 325(1-3), 93-98
     doi.org/10.1016/s0009-2614(00)00662-x

Timings for individual modules:

Sum of individual times          ...       22.739 sec (=   0.379 min)
Geometry relaxation              ...        3.602 sec (=   0.060 min)  15.8 %
XTB module                       ...       19.136 sec (=   0.319 min)  84.2 %
                             ****ORCA TERMINATED NORMALLY****
TOTAL RUN TIME: 0 days 0 hours 0 minutes 25 seconds 643 msec
mv: cannot stat '*.out': No such file or directory
mv: cannot stat '*.err': No such file or directory
