      -----------------------------------------------------------      
     |                   =====================                   |     
     |                           x T B                           |     
     |                   =====================                   |     
     |                         S. Grimme                         |     
     |          Mulliken Center for Theoretical Chemistry        |     
     |                    University of Bonn                     |     
      -----------------------------------------------------------      

   * xtb version 6.7.0 (08769fc) compiled by 'albert@albert-system' on 2024-03-04

   xtb is free software: you can redistribute it and/or modify it under
   the terms of the GNU Lesser General Public License as published by
   the Free Software Foundation, either version 3 of the License, or
   (at your option) any later version.
   
   xtb is distributed in the hope that it will be useful,
   but WITHOUT ANY WARRANTY; without even the implied warranty of
   MERCHANTABILITY or FITNESS FOR A PARTICULAR PURPOSE.  See the
   GNU Lesser General Public License for more details.
   
   Cite this work as:
   * C. Bannwarth, E. Caldeweyher, S. Ehlert, A. Hansen, P. Pracht,
     J. Seibert, S. Spicher, S. Grimme, WIREs Comput. Mol. Sci., 2020, 11,
     e01493. DOI: 10.1002/wcms.1493
   
   for GFN2-xTB:
   * C. Bannwarth, S. Ehlert and S. Grimme., J. Chem. Theory Comput., 2019,
     15, 1652-1671. DOI: 10.1021/acs.jctc.8b01176
   for GFN1-xTB:
   * S. Grimme, C. Bannwarth, P. Shushkov, J. Chem. Theory Comput., 2017,
     13, 1989-2009. DOI: 10.1021/acs.jctc.7b00118
   for GFN0-xTB:
   * P. Pracht, E. Caldeweyher, S. Ehlert, S. Grimme, ChemRxiv, 2019, preprint.
     DOI: 10.26434/chemrxiv.8326202.v1
   for GFN-FF:
   * S. Spicher and S. Grimme, Angew. Chem. Int. Ed., 2020, 59, 15665-15673.
     DOI: 10.1002/anie.202004239
   
   for ALPB and GBSA implicit solvation:
   * S. Ehlert, M. Stahn, S. Spicher, S. Grimme, J. Chem. Theory Comput.,
     2021, 17, 4250-4261. DOI: 10.1021/acs.jctc.1c00471
   
   for ddCOSMO and CPCM-X implicit solvation:
   * M. Stahn, S. Ehlert, S. Grimme, J. Phys. Chem. A,
     2023, XX, XXXX-XXXX. DOI: 10.1021/acs.jpca.3c04382
   
   for DFT-D4:
   * E. Caldeweyher, C. Bannwarth and S. Grimme, J. Chem. Phys., 2017,
     147, 034112. DOI: 10.1063/1.4993215
   * E. Caldeweyher, S. Ehlert, A. Hansen, H. Neugebauer, S. Spicher,
     C. Bannwarth and S. Grimme, J. Chem. Phys., 2019, 150, 154122.
     DOI: 10.1063/1.5090222
   * E. Caldeweyher, J.-M. Mewes, S. Ehlert and S. Grimme, Phys. Chem. Chem. Phys.
     2020, 22, 8499-8512. DOI: 10.1039/D0CP00502A
   
   for sTDA-xTB:
   * S. Grimme and C. Bannwarth, J. Chem. Phys., 2016, 145, 054103.
     DOI: 10.1063/1.4959605
   
   in the mass-spec context:
   * V. Asgeirsson, C. Bauer and S. Grimme, Chem. Sci., 2017, 8, 4879.
     DOI: 10.1039/c7sc00601b
   * J. Koopman and S. Grimme, ACS Omega 2019, 4, 12, 15120-15133.
     DOI: 10.1021/acsomega.9b02011
   
   for metadynamics refer to:
   * S. Grimme, J. Chem. Theory Comput., 2019, 155, 2847-2862
     DOI: 10.1021/acs.jctc.9b00143
   
   for SPH calculations refer to:
   * S. Spicher and S. Grimme, J. Chem. Theory Comput., 2021, 17, 1701-1714
     DOI: 10.1021/acs.jctc.0c01306
   
   for ONIOM refer to:
   * C. Plett, A. Katbashev, S. Ehlert, S. Grimme, M. Bursch,
     Phys. Chem. Chem. Phys., 2023, 25, 17860-17868. DOI: 10.1039/D3CP02178E
   
   for DIPRO refer to:
   * J. Kohn, N. Gildemeister, S. Grimme, D. Fazzi, A. Hansen,
     J. Chem. Phys., 2023, just accepted.
   
   for PTB refer to:
   * S. Grimme, M. Mueller, A. Hansen, J. Chem. Phys., 2023, 158, 124111.
     DOI: 10.1063/5.0137838
   
   with help from (in alphabetical order)
   P. Atkinson, C. Bannwarth, F. Bohle, G. Brandenburg, E. Caldeweyher
   M. Checinski, S. Dohm, S. Ehlert, S. Ehrlich, I. Gerasimov, C. Hölzer
   A. Katbashev, J. Kohn, J. Koopman, C. Lavigne, S. Lehtola, F. März, M. Müller,
   F. Musil, H. Neugebauer, J. Pisarek, C. Plett, P. Pracht, F. Pultar,
   J. Seibert, P. Shushkov, S. Spicher, M. Stahn, M. Steiner, T. Strunk,
   J. Stückrath, T. Rose, and J. Unsleber
   
 * started run on 2026/01/20 at 10:12:58.846     
   ID    Z sym.   atoms
    1    6 C      1-4, 6-11, 23, 27-30, 32, 34, 38, 40-42, 45-47
    2    7 N      5, 12, 24
    3    1 H      13-21, 25, 26, 35-37, 39, 43, 44, 48, 49
    4   28 Ni     22
    5    8 O      31, 33

           -------------------------------------------------
          |                Calculation Setup                |
           -------------------------------------------------

          program call               : /home/henryteahan/opt/xtb-6.7.0/xtb-dist/bin/xtb /home/henryteahan/Projects/Orca_workflow/Automated/isomer1_embed_2.xyz --SP --parallel 4 --gfn2
          coordinate file            : /home/henryteahan/Projects/Orca_workflow/Automated/isomer1_embed_2.xyz
          omp threads                :                     4

########################################################################
[WARNING] Please study the warnings concerning your input carefully
-1- prog_main_parseArguments: Unknown option '--SP' provided
########################################################################

           -------------------------------------------------
          |                 G F N 2 - x T B                 |
           -------------------------------------------------

        Reference                      10.1021/acs.jctc.8b01176
      * Hamiltonian:
        H0-scaling (s, p, d)           1.850000    2.230000    2.230000
        zeta-weighting                 0.500000
      * Dispersion:
        s8                             2.700000
        a1                             0.520000
        a2                             5.000000
        s9                             5.000000
      * Repulsion:
        kExp                           1.500000    1.000000
        rExp                           1.000000
      * Coulomb:
        alpha                          2.000000
        third order                    shell-resolved
        anisotropic                    true
        a3                             3.000000
        a5                             4.000000
        cn-shift                       1.200000
        cn-exp                         4.000000
        max-rad                        5.000000

q/qsh data taken from xtbrestart
CAMM data taken from xtbrestart

          ...................................................
          :                      SETUP                      :
          :.................................................:
          :  # basis functions                 145          :
          :  # atomic orbitals                 144          :
          :  # shells                           80          :
          :  # electrons                       152          :
          :  max. iterations                   250          :
          :  Hamiltonian                  GFN2-xTB          :
          :  restarted?                       true          :
          :  GBSA solvation                  false          :
          :  PC potential                    false          :
          :  electronic temp.          300.0000000     K    :
          :  accuracy                    1.0000000          :
          :  -> integral cutoff          0.2500000E+02      :
          :  -> integral neglect         0.1000000E-07      :
          :  -> SCF convergence          0.1000000E-05 Eh   :
          :  -> wf. convergence          0.1000000E-03 e    :
          :  Broyden damping             0.4000000          :
          :  net charge                          0          :
          :  unpaired electrons                  0          :
          ...................................................

 iter      E             dE          RMSdq      gap      omega  full diag
   1    -84.0191941 -0.840192E+02  0.690E+00    1.27       0.0  T
   2    -84.0792773 -0.600831E-01  0.437E+00    0.84       1.0  T
   3    -83.9886637  0.906136E-01  0.170E+00    0.47       1.0  T
   4    -84.0965245 -0.107861E+00  0.671E-01    0.45       1.0  T
   5    -84.1031947 -0.667017E-02  0.352E-01    0.55       1.0  T
   6    -84.1030323  0.162372E-03  0.246E-01    0.49       1.0  T
   7    -84.1036186 -0.586235E-03  0.102E-01    0.56       1.0  T
   8    -84.1038450 -0.226486E-03  0.699E-02    0.51       1.0  T
   9    -84.1039200 -0.749774E-04  0.365E-02    0.54       1.0  T
  10    -84.1039359 -0.158368E-04  0.170E-02    0.53       1.0  T
  11    -84.1039380 -0.210948E-05  0.845E-03    0.54       1.7  T
  12    -84.1039389 -0.907540E-06  0.437E-03    0.54       3.3  T
  13    -84.1039390 -0.102153E-06  0.242E-03    0.54       5.9  T
  14    -84.1039390 -0.496841E-07  0.120E-03    0.54      11.9  T
  15    -84.1039391 -0.313042E-07  0.629E-04    0.54      22.7  T
  16    -84.1039391 -0.194936E-08  0.285E-04    0.54      50.1  T

   *** convergence criteria satisfied after 16 iterations ***

         #    Occupation            Energy/Eh            Energy/eV
      -------------------------------------------------------------
         1        2.0000           -0.7131283             -19.4052
       ...           ...                  ...                  ...
        70        2.0000           -0.3772227             -10.2648
        71        2.0000           -0.3745284             -10.1914
        72        2.0000           -0.3726138             -10.1393
        73        2.0000           -0.3644186              -9.9163
        74        2.0000           -0.3612462              -9.8300
        75        2.0000           -0.3539881              -9.6325
        76        1.9999           -0.3382587              -9.2045 (HOMO)
        77        0.0001           -0.3185552              -8.6683 (LUMO)
        78                         -0.2894417              -7.8761
        79                         -0.2833152              -7.7094
        80                         -0.2575374              -7.0079
        81                         -0.2432366              -6.6188
       ...                                ...                  ...
       144                          1.5801184              42.9972
      -------------------------------------------------------------
                  HL-Gap            0.0197035 Eh            0.5362 eV
             Fermi-level           -0.3284070 Eh           -8.9364 eV

 SCC (total)                   0 d,  0 h,  0 min,  0.084 sec
 SCC setup                      ...        0 min,  0.000 sec (  0.518%)
 Dispersion                     ...        0 min,  0.001 sec (  0.994%)
 classical contributions        ...        0 min,  0.000 sec (  0.071%)
 integral evaluation            ...        0 min,  0.009 sec ( 10.746%)
 iterations                     ...        0 min,  0.063 sec ( 74.525%)
 molecular gradient             ...        0 min,  0.011 sec ( 12.606%)
 printout                       ...        0 min,  0.000 sec (  0.496%)

         :::::::::::::::::::::::::::::::::::::::::::::::::::::
         ::                     SUMMARY                     ::
         :::::::::::::::::::::::::::::::::::::::::::::::::::::
         :: total energy             -82.832039752549 Eh    ::
         :: gradient norm              0.028667776694 Eh/a0 ::
         :: HOMO-LUMO gap              0.536159717052 eV    ::
         ::.................................................::
         :: SCC energy               -84.102777478948 Eh    ::
         :: -> isotropic ES            0.095767737707 Eh    ::
         :: -> anisotropic ES          0.001280672357 Eh    ::
         :: -> anisotropic XC          0.036410341556 Eh    ::
         :: -> dispersion             -0.068097435713 Eh    ::
         :: repulsion energy           1.270737726399 Eh    ::
         :: add. restraining           0.000000000000 Eh    ::
         :: total charge               0.000000000004 e     ::
         :::::::::::::::::::::::::::::::::::::::::::::::::::::

           -------------------------------------------------
          |                Property Printout                |
           -------------------------------------------------

    * Orbital Energies and Occupations

         #    Occupation            Energy/Eh            Energy/eV
      -------------------------------------------------------------
         1        2.0000           -0.7131283             -19.4052
       ...           ...                  ...                  ...
        64        2.0000           -0.4051968             -11.0260
        65        2.0000           -0.4041163             -10.9966
        66        2.0000           -0.4029415             -10.9646
        67        2.0000           -0.4004063             -10.8956
        68        2.0000           -0.3928733             -10.6906
        69        2.0000           -0.3793601             -10.3229
        70        2.0000           -0.3772227             -10.2648
        71        2.0000           -0.3745284             -10.1914
        72        2.0000           -0.3726138             -10.1393
        73        2.0000           -0.3644186              -9.9163
        74        2.0000           -0.3612462              -9.8300
        75        2.0000           -0.3539881              -9.6325
        76        1.9999           -0.3382587              -9.2045 (HOMO)
        77        0.0001           -0.3185552              -8.6683 (LUMO)
        78                         -0.2894417              -7.8761
        79                         -0.2833152              -7.7094
        80                         -0.2575374              -7.0079
        81                         -0.2432366              -6.6188
        82                         -0.2193680              -5.9693
        83                         -0.2075819              -5.6486
        84                         -0.1955838              -5.3221
        85                         -0.1933647              -5.2617
        86                         -0.1653433              -4.4992
        87                         -0.1347346              -3.6663
       ...                                ...                  ...
       144                          1.5801184              42.9972
      -------------------------------------------------------------
                  HL-Gap            0.0197035 Eh            0.5362 eV
             Fermi-level           -0.3284070 Eh           -8.9364 eV

     #   Z          covCN         q      C6AA      α(0)
     1   6 C        2.915    -0.029    28.722     8.788
     2   6 C        2.924    -0.008    28.221     8.712
     3   6 C        2.915    -0.036    28.906     8.816
     4   6 C        2.995     0.079    26.233     8.402
     5   7 N        2.647     0.003    21.223     6.842
     6   6 C        2.889     0.058    26.703     8.472
     7   6 C        3.015     0.082    26.162     8.390
     8   6 C        2.919    -0.036    28.907     8.817
     9   6 C        2.923    -0.010    28.263     8.718
    10   6 C        2.917    -0.031    28.775     8.796
    11   6 C        2.896     0.049    26.890     8.502
    12   7 N        2.639    -0.018    21.616     6.905
    13   1 H        0.926     0.061     2.189     2.314
    14   1 H        0.926     0.054     2.276     2.359
    15   1 H        0.926     0.049     2.329     2.387
    16   1 H        0.925     0.115     1.656     2.012
    17   1 H        0.926     0.054     2.275     2.359
    18   1 H        0.926     0.056     2.243     2.342
    19   1 H        0.926     0.060     2.194     2.316
    20   1 H        0.926     0.083     1.945     2.181
    21   1 H        0.926     0.028     2.621     2.532
    22  28 Ni       3.444    -0.283   189.193    28.381
    23   6 C        3.695     0.044    20.009     6.399
    24   7 N        2.753    -0.120    23.614     7.217
    25   1 H        0.923     0.048     2.341     2.393
    26   1 H        0.925     0.023     2.689     2.564
    27   6 C        3.051     0.032    27.228     8.558
    28   6 C        2.677     0.416    19.989     7.316
    29   6 C        2.923    -0.022    28.560     8.764
    30   6 C        2.910     0.073    26.374     8.421
    31   8 O        1.598    -0.332    19.612     5.977
    32   6 C        2.920    -0.029    28.737     8.791
    33   8 O        0.857    -0.474    23.219     6.460
    34   6 C        2.923    -0.045    29.120     8.849
    35   1 H        0.926     0.060     2.193     2.316
    36   1 H        0.926     0.029     2.601     2.522
    37   1 H        0.925     0.063     2.165     2.301
    38   6 C        2.922    -0.044    29.088     8.845
    39   1 H        0.926     0.026     2.646     2.544
    40   6 C        2.918    -0.030    28.739     8.791
    41   6 C        2.917    -0.033    28.817     8.803
    42   6 C        2.920    -0.033    28.826     8.804
    43   1 H        0.926     0.033     2.547     2.496
    44   1 H        0.926     0.022     2.699     2.569
    45   6 C        2.919    -0.035    28.867     8.811
    46   6 C        2.918    -0.042    29.040     8.837
    47   6 C        2.923    -0.057    29.419     8.895
    48   1 H        0.925     0.021     2.714     2.576
    49   1 H        0.926     0.028     2.614     2.528

 Mol. C6AA /au·bohr⁶  :      36681.828658
 Mol. C8AA /au·bohr⁸  :    1015951.290471
 Mol. α(0) /au        :        312.691289


Wiberg/Mayer (AO) data.
largest (>0.10) Wiberg bond orders for each atom

 ---------------------------------------------------------------------------
     #   Z sym  total        # sym  WBO       # sym  WBO       # sym  WBO
 ---------------------------------------------------------------------------
     1   6 C    3.977 --     2 C    1.428     6 C    1.420    13 H    0.968
     2   6 C    3.987 --     3 C    1.447     1 C    1.428    14 H    0.969
     3   6 C    3.989 --     2 C    1.447     4 C    1.381    15 H    0.963
                             6 C    0.102
     4   6 C    3.979 --     3 C    1.381     5 N    1.307     7 C    1.059
     5   7 N    3.533 --     6 C    1.402     4 C    1.307    22 Ni   0.556
     6   6 C    3.966 --     1 C    1.420     5 N    1.402    16 H    0.938
                             3 C    0.102
     7   6 C    3.978 --     8 C    1.387    12 N    1.286     4 C    1.059
     8   6 C    3.990 --     9 C    1.446     7 C    1.387    17 H    0.962
     9   6 C    3.980 --     8 C    1.446    10 C    1.416    18 H    0.968
    10   6 C    3.978 --    11 C    1.436     9 C    1.416    19 H    0.968
    11   6 C    3.973 --    10 C    1.436    12 N    1.381    20 H    0.942
    12   7 N    3.538 --    11 C    1.381     7 C    1.286    22 Ni   0.604
    13   1 H    0.996 --     1 C    0.968
    14   1 H    0.996 --     2 C    0.969
    15   1 H    0.997 --     3 C    0.963
    16   1 H    0.986 --     6 C    0.938
    17   1 H    0.997 --     8 C    0.962
    18   1 H    0.996 --     9 C    0.968
    19   1 H    0.996 --    10 C    0.968
    20   1 H    0.993 --    11 C    0.942
    21   1 H    0.999 --    47 C    0.964
    22  28 Ni   3.537 --    23 C    0.831    31 O    0.756    12 N    0.604
                             5 N    0.556    27 C    0.115
    23   6 C    3.938 --    27 C    0.983    24 N    0.961    25 H    0.910
                            22 Ni   0.831
    24   7 N    3.491 --    30 C    1.086    28 C    1.052    23 C    0.961
                            33 O    0.119
    25   1 H    0.997 --    23 C    0.910
    26   1 H    0.999 --    38 C    0.964
    27   6 C    3.985 --    38 C    1.363    29 C    1.352    23 C    0.983
                            22 Ni   0.115
    28   6 C    3.943 --    33 O    1.608    31 O    1.191    24 N    1.052
    29   6 C    3.990 --    40 C    1.454    27 C    1.352    37 H    0.946
                            41 C    0.105
    30   6 C    3.966 --    47 C    1.362    34 C    1.354    24 N    1.086
    31   8 O    2.340 --    28 C    1.191    22 Ni   0.756    33 O    0.142
    32   6 C    3.991 --    34 C    1.464    46 C    1.424    36 H    0.971
                            47 C    0.103
    33   8 O    1.971 --    28 C    1.608    31 O    0.142    24 N    0.119
    34   6 C    3.984 --    32 C    1.464    30 C    1.354    35 H    0.964
                            42 C    0.107
    35   1 H    0.996 --    34 C    0.964
    36   1 H    0.999 --    32 C    0.971
    37   1 H    0.996 --    29 C    0.946
    38   6 C    3.989 --    41 C    1.454    27 C    1.363    26 H    0.964
                            40 C    0.105
    39   1 H    0.999 --    41 C    0.971
    40   6 C    3.992 --    29 C    1.454    45 C    1.430    43 H    0.971
                            38 C    0.105
    41   6 C    3.991 --    38 C    1.454    45 C    1.430    39 H    0.971
                            29 C    0.105
    42   6 C    3.992 --    47 C    1.451    46 C    1.435    48 H    0.972
                            34 C    0.107
    43   1 H    0.999 --    40 C    0.971
    44   1 H    0.999 --    46 C    0.972
    45   6 C    3.984 --    41 C    1.430    40 C    1.430    49 H    0.972
    46   6 C    3.982 --    42 C    1.435    32 C    1.424    44 H    0.972
    47   6 C    3.986 --    42 C    1.451    30 C    1.362    21 H    0.964
                            32 C    0.103
    48   1 H    0.999 --    42 C    0.972
    49   1 H    0.999 --    45 C    0.972
 ---------------------------------------------------------------------------

Topologies differ in total number of bonds
Writing topology from bond orders to xtbtopo.mol

molecular dipole:
                 x           y           z       tot (Debye)
 q only:       -1.558       0.337       4.458
   full:       -1.973       0.496       5.096      13.947
molecular quadrupole (traceless):
                xx          xy          yy          xz          yz          zz
 q only:      -46.122     -30.333     -13.502     -11.151      71.512      59.624
  q+dip:      -55.458     -38.665      -9.599     -18.843      80.559      65.057
   full:      -52.347     -36.374     -13.768     -14.960      83.860      66.115


           -------------------------------------------------
          | TOTAL ENERGY              -82.832039752549 Eh   |
          | GRADIENT NORM               0.028667776694 Eh/α |
          | HOMO-LUMO GAP               0.536159717052 eV   |
           -------------------------------------------------

------------------------------------------------------------------------
 * finished run on 2026/01/20 at 10:12:58.950     
------------------------------------------------------------------------
 total:
 * wall-time:     0 d,  0 h,  0 min,  0.103 sec
 *  cpu-time:     0 d,  0 h,  0 min,  0.383 sec
 * ratio c/w:     3.714 speedup
 SCF:
 * wall-time:     0 d,  0 h,  0 min,  0.085 sec
 *  cpu-time:     0 d,  0 h,  0 min,  0.331 sec
 * ratio c/w:     3.911 speedup

normal termination of xtb
