      -----------------------------------------------------------      
     |                   =====================                   |     
     |                           x T B                           |     
     |                   =====================                   |     
     |                         S. Grimme                         |     
     |          Mulliken Center for Theoretical Chemistry        |     
     |                    University of Bonn                     |     
      -----------------------------------------------------------      

   * xtb version 6.7.0 (08769fc) compiled by 'albert@albert-system' on 2024-03-04

   xtb is free software: you can redistribute it and/or modify it under
   the terms of the GNU Lesser General Public License as published by
   the Free Software Foundation, either version 3 of the License, or
   (at your option) any later version.
   
   xtb is distributed in the hope that it will be useful,
   but WITHOUT ANY WARRANTY; without even the implied warranty of
   MERCHANTABILITY or FITNESS FOR A PARTICULAR PURPOSE.  See the
   GNU Lesser General Public License for more details.
   
   Cite this work as:
   * C. Bannwarth, E. Caldeweyher, S. Ehlert, A. Hansen, P. Pracht,
     J. Seibert, S. Spicher, S. Grimme, WIREs Comput. Mol. Sci., 2020, 11,
     e01493. DOI: 10.1002/wcms.1493
   
   for GFN2-xTB:
   * C. Bannwarth, S. Ehlert and S. Grimme., J. Chem. Theory Comput., 2019,
     15, 1652-1671. DOI: 10.1021/acs.jctc.8b01176
   for GFN1-xTB:
   * S. Grimme, C. Bannwarth, P. Shushkov, J. Chem. Theory Comput., 2017,
     13, 1989-2009. DOI: 10.1021/acs.jctc.7b00118
   for GFN0-xTB:
   * P. Pracht, E. Caldeweyher, S. Ehlert, S. Grimme, ChemRxiv, 2019, preprint.
     DOI: 10.26434/chemrxiv.8326202.v1
   for GFN-FF:
   * S. Spicher and S. Grimme, Angew. Chem. Int. Ed., 2020, 59, 15665-15673.
     DOI: 10.1002/anie.202004239
   
   for ALPB and GBSA implicit solvation:
   * S. Ehlert, M. Stahn, S. Spicher, S. Grimme, J. Chem. Theory Comput.,
     2021, 17, 4250-4261. DOI: 10.1021/acs.jctc.1c00471
   
   for ddCOSMO and CPCM-X implicit solvation:
   * M. Stahn, S. Ehlert, S. Grimme, J. Phys. Chem. A,
     2023, XX, XXXX-XXXX. DOI: 10.1021/acs.jpca.3c04382
   
   for DFT-D4:
   * E. Caldeweyher, C. Bannwarth and S. Grimme, J. Chem. Phys., 2017,
     147, 034112. DOI: 10.1063/1.4993215
   * E. Caldeweyher, S. Ehlert, A. Hansen, H. Neugebauer, S. Spicher,
     C. Bannwarth and S. Grimme, J. Chem. Phys., 2019, 150, 154122.
     DOI: 10.1063/1.5090222
   * E. Caldeweyher, J.-M. Mewes, S. Ehlert and S. Grimme, Phys. Chem. Chem. Phys.
     2020, 22, 8499-8512. DOI: 10.1039/D0CP00502A
   
   for sTDA-xTB:
   * S. Grimme and C. Bannwarth, J. Chem. Phys., 2016, 145, 054103.
     DOI: 10.1063/1.4959605
   
   in the mass-spec context:
   * V. Asgeirsson, C. Bauer and S. Grimme, Chem. Sci., 2017, 8, 4879.
     DOI: 10.1039/c7sc00601b
   * J. Koopman and S. Grimme, ACS Omega 2019, 4, 12, 15120-15133.
     DOI: 10.1021/acsomega.9b02011
   
   for metadynamics refer to:
   * S. Grimme, J. Chem. Theory Comput., 2019, 155, 2847-2862
     DOI: 10.1021/acs.jctc.9b00143
   
   for SPH calculations refer to:
   * S. Spicher and S. Grimme, J. Chem. Theory Comput., 2021, 17, 1701-1714
     DOI: 10.1021/acs.jctc.0c01306
   
   for ONIOM refer to:
   * C. Plett, A. Katbashev, S. Ehlert, S. Grimme, M. Bursch,
     Phys. Chem. Chem. Phys., 2023, 25, 17860-17868. DOI: 10.1039/D3CP02178E
   
   for DIPRO refer to:
   * J. Kohn, N. Gildemeister, S. Grimme, D. Fazzi, A. Hansen,
     J. Chem. Phys., 2023, just accepted.
   
   for PTB refer to:
   * S. Grimme, M. Mueller, A. Hansen, J. Chem. Phys., 2023, 158, 124111.
     DOI: 10.1063/5.0137838
   
   with help from (in alphabetical order)
   P. Atkinson, C. Bannwarth, F. Bohle, G. Brandenburg, E. Caldeweyher
   M. Checinski, S. Dohm, S. Ehlert, S. Ehrlich, I. Gerasimov, C. Hölzer
   A. Katbashev, J. Kohn, J. Koopman, C. Lavigne, S. Lehtola, F. März, M. Müller,
   F. Musil, H. Neugebauer, J. Pisarek, C. Plett, P. Pracht, F. Pultar,
   J. Seibert, P. Shushkov, S. Spicher, M. Stahn, M. Steiner, T. Strunk,
   J. Stückrath, T. Rose, and J. Unsleber
   
 * started run on 2026/01/20 at 10:12:58.628     
   ID    Z sym.   atoms
    1    6 C      1-4, 6-11, 23, 27-30, 32, 34, 38, 40-42, 45-47
    2    7 N      5, 12, 24
    3    1 H      13-21, 25, 26, 35-37, 39, 43, 44, 48, 49
    4   28 Ni     22
    5    8 O      31, 33

           -------------------------------------------------
          |                Calculation Setup                |
           -------------------------------------------------

          program call               : /home/henryteahan/opt/xtb-6.7.0/xtb-dist/bin/xtb /home/henryteahan/Projects/Orca_workflow/Automated/isomer1_embed_0.xyz --SP --parallel 4 --gfn2
          coordinate file            : /home/henryteahan/Projects/Orca_workflow/Automated/isomer1_embed_0.xyz
          omp threads                :                     4

########################################################################
[WARNING] Please study the warnings concerning your input carefully
-1- prog_main_parseArguments: Unknown option '--SP' provided
########################################################################

           -------------------------------------------------
          |                 G F N 2 - x T B                 |
           -------------------------------------------------

        Reference                      10.1021/acs.jctc.8b01176
      * Hamiltonian:
        H0-scaling (s, p, d)           1.850000    2.230000    2.230000
        zeta-weighting                 0.500000
      * Dispersion:
        s8                             2.700000
        a1                             0.520000
        a2                             5.000000
        s9                             5.000000
      * Repulsion:
        kExp                           1.500000    1.000000
        rExp                           1.000000
      * Coulomb:
        alpha                          2.000000
        third order                    shell-resolved
        anisotropic                    true
        a3                             3.000000
        a5                             4.000000
        cn-shift                       1.200000
        cn-exp                         4.000000
        max-rad                        5.000000

q/qsh data taken from xtbrestart
CAMM data taken from xtbrestart

          ...................................................
          :                      SETUP                      :
          :.................................................:
          :  # basis functions                 145          :
          :  # atomic orbitals                 144          :
          :  # shells                           80          :
          :  # electrons                       152          :
          :  max. iterations                   250          :
          :  Hamiltonian                  GFN2-xTB          :
          :  restarted?                       true          :
          :  GBSA solvation                  false          :
          :  PC potential                    false          :
          :  electronic temp.          300.0000000     K    :
          :  accuracy                    1.0000000          :
          :  -> integral cutoff          0.2500000E+02      :
          :  -> integral neglect         0.1000000E-07      :
          :  -> SCF convergence          0.1000000E-05 Eh   :
          :  -> wf. convergence          0.1000000E-03 e    :
          :  Broyden damping             0.4000000          :
          :  net charge                          0          :
          :  unpaired electrons                  0          :
          ...................................................

 iter      E             dE          RMSdq      gap      omega  full diag
   1    -84.0590054 -0.840590E+02  0.626E+00    0.29       0.0  T
   2    -84.0862969 -0.272914E-01  0.385E+00    0.85       1.0  T
   3    -83.8847949  0.201502E+00  0.180E+00    0.16       1.0  T
   4    -84.0889124 -0.204117E+00  0.560E-01    1.38       1.0  T
   5    -84.1025835 -0.136711E-01  0.428E-01    0.77       1.0  T
   6    -84.1048120 -0.222848E-02  0.274E-01    0.51       1.0  T
   7    -84.1036715  0.114043E-02  0.210E-01    0.40       1.0  T
   8    -84.1051377 -0.146611E-02  0.795E-02    0.57       1.0  T
   9    -84.1052032 -0.655222E-04  0.651E-02    0.57       1.0  T
  10    -84.1052221 -0.189328E-04  0.410E-02    0.58       1.0  T
  11    -84.1052383 -0.162343E-04  0.191E-02    0.57       1.0  T
  12    -84.1052435 -0.520206E-05  0.878E-03    0.56       1.6  T
  13    -84.1052446 -0.104267E-05  0.464E-03    0.56       3.1  T
  14    -84.1052450 -0.427243E-06  0.156E-03    0.56       9.1  T
  15    -84.1052451 -0.498793E-07  0.829E-04    0.56      17.2  T
  16    -84.1052451 -0.399208E-08  0.430E-04    0.56      33.2  T

   *** convergence criteria satisfied after 16 iterations ***

         #    Occupation            Energy/Eh            Energy/eV
      -------------------------------------------------------------
         1        2.0000           -0.7125987             -19.3908
       ...           ...                  ...                  ...
        70        2.0000           -0.3772357             -10.2651
        71        2.0000           -0.3748875             -10.2012
        72        2.0000           -0.3723902             -10.1333
        73        2.0000           -0.3645047              -9.9187
        74        2.0000           -0.3615712              -9.8389
        75        2.0000           -0.3537091              -9.6249
        76        2.0000           -0.3386262              -9.2145 (HOMO)
        77        0.0000           -0.3180300              -8.6540 (LUMO)
        78                         -0.2887969              -7.8586
        79                         -0.2825459              -7.6885
        80                         -0.2573969              -7.0041
        81                         -0.2427882              -6.6066
       ...                                ...                  ...
       144                          1.5845985              43.1191
      -------------------------------------------------------------
                  HL-Gap            0.0205962 Eh            0.5605 eV
             Fermi-level           -0.3283281 Eh           -8.9343 eV

 SCC (total)                   0 d,  0 h,  0 min,  0.072 sec
 SCC setup                      ...        0 min,  0.000 sec (  0.504%)
 Dispersion                     ...        0 min,  0.001 sec (  0.812%)
 classical contributions        ...        0 min,  0.000 sec (  0.063%)
 integral evaluation            ...        0 min,  0.007 sec (  9.244%)
 iterations                     ...        0 min,  0.054 sec ( 75.714%)
 molecular gradient             ...        0 min,  0.009 sec ( 12.990%)
 printout                       ...        0 min,  0.000 sec (  0.621%)

         :::::::::::::::::::::::::::::::::::::::::::::::::::::
         ::                     SUMMARY                     ::
         :::::::::::::::::::::::::::::::::::::::::::::::::::::
         :: total energy             -82.833060417232 Eh    ::
         :: gradient norm              0.026169313604 Eh/a0 ::
         :: HOMO-LUMO gap              0.560450923602 eV    ::
         ::.................................................::
         :: SCC energy               -84.104129695038 Eh    ::
         :: -> isotropic ES            0.095351176887 Eh    ::
         :: -> anisotropic ES          0.001225006351 Eh    ::
         :: -> anisotropic XC          0.036352393253 Eh    ::
         :: -> dispersion             -0.067865699816 Eh    ::
         :: repulsion energy           1.271069277806 Eh    ::
         :: add. restraining           0.000000000000 Eh    ::
         :: total charge               0.000000000005 e     ::
         :::::::::::::::::::::::::::::::::::::::::::::::::::::

           -------------------------------------------------
          |                Property Printout                |
           -------------------------------------------------

    * Orbital Energies and Occupations

         #    Occupation            Energy/Eh            Energy/eV
      -------------------------------------------------------------
         1        2.0000           -0.7125987             -19.3908
       ...           ...                  ...                  ...
        64        2.0000           -0.4056569             -11.0385
        65        2.0000           -0.4042827             -11.0011
        66        2.0000           -0.4028648             -10.9625
        67        2.0000           -0.4001252             -10.8880
        68        2.0000           -0.3934996             -10.7077
        69        2.0000           -0.3791975             -10.3185
        70        2.0000           -0.3772357             -10.2651
        71        2.0000           -0.3748875             -10.2012
        72        2.0000           -0.3723902             -10.1333
        73        2.0000           -0.3645047              -9.9187
        74        2.0000           -0.3615712              -9.8389
        75        2.0000           -0.3537091              -9.6249
        76        2.0000           -0.3386262              -9.2145 (HOMO)
        77        0.0000           -0.3180300              -8.6540 (LUMO)
        78                         -0.2887969              -7.8586
        79                         -0.2825459              -7.6885
        80                         -0.2573969              -7.0041
        81                         -0.2427882              -6.6066
        82                         -0.2190020              -5.9593
        83                         -0.2074430              -5.6448
        84                         -0.1959516              -5.3321
        85                         -0.1937623              -5.2725
        86                         -0.1647392              -4.4828
        87                         -0.1348375              -3.6691
       ...                                ...                  ...
       144                          1.5845985              43.1191
      -------------------------------------------------------------
                  HL-Gap            0.0205962 Eh            0.5605 eV
             Fermi-level           -0.3283281 Eh           -8.9343 eV

     #   Z          covCN         q      C6AA      α(0)
     1   6 C        2.917    -0.031    28.779     8.797
     2   6 C        2.923    -0.010    28.266     8.719
     3   6 C        2.919    -0.036    28.906     8.817
     4   6 C        3.011     0.081    26.166     8.391
     5   7 N        2.639    -0.018    21.615     6.905
     6   6 C        2.896     0.049    26.895     8.503
     7   6 C        2.993     0.078    26.242     8.403
     8   6 C        2.916    -0.037    28.908     8.817
     9   6 C        2.924    -0.008    28.225     8.712
    10   6 C        2.915    -0.029    28.724     8.789
    11   6 C        2.889     0.057    26.713     8.474
    12   7 N        2.646     0.004    21.201     6.838
    13   1 H        0.926     0.060     2.198     2.319
    14   1 H        0.926     0.056     2.248     2.345
    15   1 H        0.926     0.053     2.278     2.360
    16   1 H        0.926     0.084     1.942     2.179
    17   1 H        0.926     0.049     2.331     2.388
    18   1 H        0.926     0.053     2.280     2.361
    19   1 H        0.926     0.061     2.192     2.315
    20   1 H        0.925     0.115     1.650     2.009
    21   1 H        0.926     0.061     2.190     2.314
    22  28 Ni       3.436    -0.287   189.270    28.387
    23   6 C        3.697     0.045    19.980     6.394
    24   7 N        2.751    -0.119    23.594     7.214
    25   1 H        0.923     0.048     2.345     2.395
    26   1 H        0.925     0.023     2.687     2.564
    27   6 C        3.055     0.033    27.212     8.555
    28   6 C        2.675     0.416    19.993     7.317
    29   6 C        2.922    -0.022    28.558     8.764
    30   6 C        2.910     0.073    26.374     8.421
    31   8 O        1.599    -0.331    19.589     5.973
    32   6 C        2.920    -0.033    28.824     8.804
    33   8 O        0.857    -0.474    23.225     6.461
    34   6 C        2.923    -0.057    29.416     8.894
    35   1 H        0.926     0.028     2.619     2.530
    36   1 H        0.926     0.021     2.711     2.575
    37   1 H        0.926     0.063     2.169     2.303
    38   6 C        2.922    -0.043    29.078     8.843
    39   1 H        0.926     0.026     2.644     2.543
    40   6 C        2.918    -0.030    28.738     8.791
    41   6 C        2.917    -0.033    28.816     8.803
    42   6 C        2.920    -0.029    28.736     8.791
    43   1 H        0.926     0.033     2.547     2.496
    44   1 H        0.926     0.022     2.697     2.568
    45   6 C        2.919    -0.035    28.865     8.810
    46   6 C        2.918    -0.042    29.038     8.837
    47   6 C        2.923    -0.045    29.126     8.850
    48   1 H        0.926     0.029     2.600     2.521
    49   1 H        0.926     0.028     2.614     2.528

 Mol. C6AA /au·bohr⁶  :      36680.153606
 Mol. C8AA /au·bohr⁸  :    1015929.810534
 Mol. α(0) /au        :        312.685751


Wiberg/Mayer (AO) data.
largest (>0.10) Wiberg bond orders for each atom

 ---------------------------------------------------------------------------
     #   Z sym  total        # sym  WBO       # sym  WBO       # sym  WBO
 ---------------------------------------------------------------------------
     1   6 C    3.978 --     6 C    1.436     2 C    1.416    13 H    0.968
     2   6 C    3.979 --     3 C    1.446     1 C    1.416    14 H    0.968
     3   6 C    3.990 --     2 C    1.446     4 C    1.387    15 H    0.963
     4   6 C    3.977 --     3 C    1.387     5 N    1.286     7 C    1.059
     5   7 N    3.538 --     6 C    1.381     4 C    1.286    22 Ni   0.605
     6   6 C    3.973 --     1 C    1.436     5 N    1.381    16 H    0.941
     7   6 C    3.979 --     8 C    1.381    12 N    1.307     4 C    1.059
     8   6 C    3.989 --     9 C    1.447     7 C    1.381    17 H    0.963
                            11 C    0.102
     9   6 C    3.986 --     8 C    1.447    10 C    1.427    18 H    0.969
    10   6 C    3.976 --     9 C    1.427    11 C    1.420    19 H    0.968
    11   6 C    3.965 --    10 C    1.420    12 N    1.402    20 H    0.937
                             8 C    0.102
    12   7 N    3.535 --    11 C    1.402     7 C    1.307    22 Ni   0.557
    13   1 H    0.996 --     1 C    0.968
    14   1 H    0.996 --     2 C    0.968
    15   1 H    0.997 --     3 C    0.963
    16   1 H    0.993 --     6 C    0.941
    17   1 H    0.997 --     8 C    0.963
    18   1 H    0.996 --     9 C    0.969
    19   1 H    0.996 --    10 C    0.968
    20   1 H    0.986 --    11 C    0.937
    21   1 H    0.996 --    47 C    0.964
    22  28 Ni   3.537 --    23 C    0.830    31 O    0.758     5 N    0.605
                            12 N    0.557    27 C    0.117
    23   6 C    3.937 --    27 C    0.982    24 N    0.963    25 H    0.910
                            22 Ni   0.830
    24   7 N    3.493 --    30 C    1.086    28 C    1.055    23 C    0.963
                            33 O    0.119
    25   1 H    0.997 --    23 C    0.910
    26   1 H    0.999 --    38 C    0.964
    27   6 C    3.985 --    38 C    1.362    29 C    1.351    23 C    0.982
                            22 Ni   0.117
    28   6 C    3.943 --    33 O    1.607    31 O    1.190    24 N    1.055
    29   6 C    3.990 --    40 C    1.454    27 C    1.351    37 H    0.947
                            41 C    0.105
    30   6 C    3.966 --    34 C    1.361    47 C    1.353    24 N    1.086
    31   8 O    2.343 --    28 C    1.190    22 Ni   0.758    33 O    0.142
    32   6 C    3.992 --    34 C    1.451    46 C    1.435    36 H    0.972
                            47 C    0.107
    33   8 O    1.971 --    28 C    1.607    31 O    0.142    24 N    0.119
    34   6 C    3.985 --    32 C    1.451    30 C    1.361    35 H    0.964
                            42 C    0.103
    35   1 H    0.999 --    34 C    0.964
    36   1 H    0.999 --    32 C    0.972
    37   1 H    0.996 --    29 C    0.947
    38   6 C    3.989 --    41 C    1.455    27 C    1.362    26 H    0.964
                            40 C    0.105
    39   1 H    0.999 --    41 C    0.971
    40   6 C    3.992 --    29 C    1.454    45 C    1.430    43 H    0.971
                            38 C    0.105
    41   6 C    3.991 --    38 C    1.455    45 C    1.430    39 H    0.971
                            29 C    0.105
    42   6 C    3.991 --    47 C    1.464    46 C    1.424    48 H    0.971
                            34 C    0.103
    43   1 H    0.999 --    40 C    0.971
    44   1 H    0.999 --    46 C    0.972
    45   6 C    3.984 --    40 C    1.430    41 C    1.430    49 H    0.972
    46   6 C    3.982 --    32 C    1.435    42 C    1.424    44 H    0.972
    47   6 C    3.983 --    42 C    1.464    30 C    1.353    21 H    0.964
                            32 C    0.107
    48   1 H    0.999 --    42 C    0.971
    49   1 H    0.999 --    45 C    0.972
 ---------------------------------------------------------------------------

Topologies differ in total number of bonds
Writing topology from bond orders to xtbtopo.mol

molecular dipole:
                 x           y           z       tot (Debye)
 q only:        3.456      -2.791      -1.471
   full:        3.958      -3.200      -1.895      13.805
molecular quadrupole (traceless):
                xx          xy          yy          xz          yz          zz
 q only:      -31.235     -43.947      25.561     -41.128      63.587       5.674
  q+dip:      -34.217     -49.203      22.954     -46.787      78.776      11.263
   full:      -38.425     -49.303      28.146     -49.001      74.658      10.279


           -------------------------------------------------
          | TOTAL ENERGY              -82.833060417232 Eh   |
          | GRADIENT NORM               0.026169313604 Eh/α |
          | HOMO-LUMO GAP               0.560450923602 eV   |
           -------------------------------------------------

------------------------------------------------------------------------
 * finished run on 2026/01/20 at 10:12:58.715     
------------------------------------------------------------------------
 total:
 * wall-time:     0 d,  0 h,  0 min,  0.087 sec
 *  cpu-time:     0 d,  0 h,  0 min,  0.332 sec
 * ratio c/w:     3.841 speedup
 SCF:
 * wall-time:     0 d,  0 h,  0 min,  0.072 sec
 *  cpu-time:     0 d,  0 h,  0 min,  0.284 sec
 * ratio c/w:     3.939 speedup

normal termination of xtb
