      -----------------------------------------------------------      
     |                   =====================                   |     
     |                           x T B                           |     
     |                   =====================                   |     
     |                         S. Grimme                         |     
     |          Mulliken Center for Theoretical Chemistry        |     
     |                    University of Bonn                     |     
      -----------------------------------------------------------      

   * xtb version 6.7.1 (edcfbbe) compiled by 'albert@albert-system' on 2024-07-22

   xtb is free software: you can redistribute it and/or modify it under
   the terms of the GNU Lesser General Public License as published by
   the Free Software Foundation, either version 3 of the License, or
   (at your option) any later version.
   
   xtb is distributed in the hope that it will be useful,
   but WITHOUT ANY WARRANTY; without even the implied warranty of
   MERCHANTABILITY or FITNESS FOR A PARTICULAR PURPOSE.  See the
   GNU Lesser General Public License for more details.
   
   Cite this work as:
   * C. Bannwarth, E. Caldeweyher, S. Ehlert, A. Hansen, P. Pracht,
     J. Seibert, S. Spicher, S. Grimme, WIREs Comput. Mol. Sci., 2020, 11,
     e01493. DOI: 10.1002/wcms.1493
   
   for GFN2-xTB:
   * C. Bannwarth, S. Ehlert and S. Grimme., J. Chem. Theory Comput., 2019,
     15, 1652-1671. DOI: 10.1021/acs.jctc.8b01176
   for GFN1-xTB:
   * S. Grimme, C. Bannwarth, P. Shushkov, J. Chem. Theory Comput., 2017,
     13, 1989-2009. DOI: 10.1021/acs.jctc.7b00118
   for GFN0-xTB:
   * P. Pracht, E. Caldeweyher, S. Ehlert, S. Grimme, ChemRxiv, 2019, preprint.
     DOI: 10.26434/chemrxiv.8326202.v1
   for GFN-FF:
   * S. Spicher and S. Grimme, Angew. Chem. Int. Ed., 2020, 59, 15665-15673.
     DOI: 10.1002/anie.202004239
   
   for ALPB and GBSA implicit solvation:
   * S. Ehlert, M. Stahn, S. Spicher, S. Grimme, J. Chem. Theory Comput.,
     2021, 17, 4250-4261. DOI: 10.1021/acs.jctc.1c00471
   
   for ddCOSMO and CPCM-X implicit solvation:
   * M. Stahn, S. Ehlert, S. Grimme, J. Phys. Chem. A,
     2023, XX, XXXX-XXXX. DOI: 10.1021/acs.jpca.3c04382
   
   for DFT-D4:
   * E. Caldeweyher, C. Bannwarth and S. Grimme, J. Chem. Phys., 2017,
     147, 034112. DOI: 10.1063/1.4993215
   * E. Caldeweyher, S. Ehlert, A. Hansen, H. Neugebauer, S. Spicher,
     C. Bannwarth and S. Grimme, J. Chem. Phys., 2019, 150, 154122.
     DOI: 10.1063/1.5090222
   * E. Caldeweyher, J.-M. Mewes, S. Ehlert and S. Grimme, Phys. Chem. Chem. Phys.
     2020, 22, 8499-8512. DOI: 10.1039/D0CP00502A
   
   for sTDA-xTB:
   * S. Grimme and C. Bannwarth, J. Chem. Phys., 2016, 145, 054103.
     DOI: 10.1063/1.4959605
   
   in the mass-spec context:
   * V. Asgeirsson, C. Bauer and S. Grimme, Chem. Sci., 2017, 8, 4879.
     DOI: 10.1039/c7sc00601b
   * J. Koopman and S. Grimme, ACS Omega 2019, 4, 12, 15120-15133.
     DOI: 10.1021/acsomega.9b02011
   
   for metadynamics refer to:
   * S. Grimme, J. Chem. Theory Comput., 2019, 155, 2847-2862
     DOI: 10.1021/acs.jctc.9b00143
   
   for SPH calculations refer to:
   * S. Spicher and S. Grimme, J. Chem. Theory Comput., 2021, 17, 1701-1714
     DOI: 10.1021/acs.jctc.0c01306
   
   for ONIOM refer to:
   * C. Plett, A. Katbashev, S. Ehlert, S. Grimme, M. Bursch,
     Phys. Chem. Chem. Phys., 2023, 25, 17860-17868. DOI: 10.1039/D3CP02178E
   
   for DIPRO refer to:
   * J. Kohn, N. Gildemeister, S. Grimme, D. Fazzi, A. Hansen,
     J. Chem. Phys., 2023, just accepted.
   
   for PTB refer to:
   * S. Grimme, M. Mueller, A. Hansen, J. Chem. Phys., 2023, 158, 124111.
     DOI: 10.1063/5.0137838
   
   with help from (in alphabetical order)
   P. Atkinson, C. Bannwarth, F. Bohle, G. Brandenburg, E. Caldeweyher
   M. Checinski, S. Dohm, S. Ehlert, S. Ehrlich, I. Gerasimov, C. Hölzer
   A. Katbashev, J. Kohn, J. Koopman, C. Lavigne, S. Lehtola, F. März, M. Müller,
   F. Musil, H. Neugebauer, J. Pisarek, C. Plett, P. Pracht, F. Pultar,
   J. Seibert, P. Shushkov, S. Spicher, M. Stahn, M. Steiner, T. Strunk,
   J. Stückrath, T. Rose, and J. Unsleber
   
 * started run on 2026/01/22 at 09:36:02.077     
   ID    Z sym.   atoms
    1    6 C      1-6, 10, 12-18, 20-25, 27-35
    2    7 N      7, 19
    3   28 Ni     8
    4    8 O      9, 11
    5   15 P      26
    6    1 H      36-73
constraining bond 7 8 to    1.8525000 Å, actual value:    2.0113171 Å
constraining bond 26 8 to    2.1945000 Å, actual value:    2.3078822 Å
constraining bond 19 8 to    1.8525000 Å, actual value:    2.0121022 Å
constraining bond 9 8 to    1.8050000 Å, actual value:    1.9903642 Å
constraining angle 26 8 9 to   90.0000000°, actual value:   92.7395806°
constraining angle 9 8 7 to  180.0000000°, actual value:  177.4865450°
constraining angle 26 8 19 to  180.0000000°, actual value:  176.9725808°

           -------------------------------------------------
          |                Calculation Setup                |
           -------------------------------------------------

          program call               : /home/henryteahan/opt/xtb-6.7.1/xtb-dist/bin/xtb sep_embed_final.xyz --opt verytight --iterations 1000 --input constrain2.inp --gfn2 --parallel 8 --chrg 0
          coordinate file            : sep_embed_final.xyz
          omp threads                :                     8


           -------------------------------------------------
          |                 G F N 2 - x T B                 |
           -------------------------------------------------

        Reference                      10.1021/acs.jctc.8b01176
      * Hamiltonian:
        H0-scaling (s, p, d)           1.850000    2.230000    2.230000
        zeta-weighting                 0.500000
      * Dispersion:
        s8                             2.700000
        a1                             0.520000
        a2                             5.000000
        s9                             5.000000
      * Repulsion:
        kExp                           1.500000    1.000000
        rExp                           1.000000
      * Coulomb:
        alpha                          2.000000
        third order                    shell-resolved
        anisotropic                    true
        a3                             3.000000
        a5                             4.000000
        cn-shift                       1.200000
        cn-exp                         4.000000
        max-rad                        5.000000

q/qsh data taken from xtbrestart
CAMM data taken from xtbrestart

          ...................................................
          :                      SETUP                      :
          :.................................................:
          :  # basis functions                 190          :
          :  # atomic orbitals                 188          :
          :  # shells                          110          :
          :  # electrons                       191          :
          :  max. iterations                  1000          :
          :  Hamiltonian                  GFN2-xTB          :
          :  restarted?                       true          :
          :  GBSA solvation                  false          :
          :  PC potential                    false          :
          :  electronic temp.          300.0000000     K    :
          :  accuracy                    1.0000000          :
          :  -> integral cutoff          0.2500000E+02      :
          :  -> integral neglect         0.1000000E-07      :
          :  -> SCF convergence          0.1000000E-05 Eh   :
          :  -> wf. convergence          0.1000000E-03 e    :
          :  Broyden damping             0.4000000          :
          :  net charge                          0          :
          :  unpaired electrons                  0          :
          ...................................................

 iter      E             dE          RMSdq      gap      omega  full diag
   1   -104.1712120 -0.104171E+03  0.461E+00    1.29       0.0  T
   2   -104.1013397  0.698723E-01  0.351E+00    0.19       1.0  T
   3   -104.0589260  0.424138E-01  0.213E+00    1.49       1.0  T
   4   -104.2433768 -0.184451E+00  0.926E-01    1.27       1.0  T
   5   -104.2763901 -0.330133E-01  0.477E-01    1.24       1.0  T
   6   -104.2625306  0.138595E-01  0.626E-01    1.27       1.0  T
   7   -104.2756125 -0.130819E-01  0.361E-01    1.13       1.0  T
   8   -104.2774403 -0.182781E-02  0.290E-01    1.27       1.0  T
   9   -104.2808140 -0.337365E-02  0.148E-01    1.25       1.0  T
  10   -104.2815441 -0.730098E-03  0.869E-02    1.24       1.0  T
  11   -104.2816692 -0.125084E-03  0.633E-02    1.25       1.0  T
  12   -104.2818425 -0.173344E-03  0.311E-02    1.24       1.0  T
  13   -104.2818537 -0.112111E-04  0.254E-02    1.24       1.0  T
  14   -104.2818879 -0.341609E-04  0.737E-03    1.24       1.6  T
  15   -104.2818903 -0.244028E-05  0.207E-03    1.24       5.7  T
  16   -104.2818904 -0.669379E-07  0.100E-03    1.24      11.7  T
  17   -104.2818903  0.803208E-07  0.136E-03    1.24       8.6  T
  18   -104.2818904 -0.100805E-06  0.384E-04    1.24      30.4  T
  19   -104.2818904  0.172808E-08  0.297E-04    1.24      39.4  T

   *** convergence criteria satisfied after 19 iterations ***

         #    Occupation            Energy/Eh            Energy/eV
      -------------------------------------------------------------
         1        2.0000           -0.6929774             -18.8569
       ...           ...                  ...                  ...
        90        2.0000           -0.3574629              -9.7271
        91        2.0000           -0.3528104              -9.6005
        92        2.0000           -0.3483513              -9.4791
        93        2.0000           -0.3443522              -9.3703
        94        2.0000           -0.3414951              -9.2926
        95        1.8158           -0.3309015              -9.0043
        96        1.1842           -0.3280743              -8.9274 (HOMO)
        97                         -0.2826154              -7.6904 (LUMO)
        98                         -0.2709516              -7.3730
        99                         -0.2523403              -6.8665
       100                         -0.2119736              -5.7681
       101                         -0.2095434              -5.7020
       ...                                ...                  ...
       188                          2.8284924              76.9672
      -------------------------------------------------------------
                  HL-Gap            0.0454589 Eh            1.2370 eV
             Fermi-level           -0.3174046 Eh           -8.6370 eV

 SCC (total)                   0 d,  0 h,  0 min,  0.139 sec
 SCC setup                      ...        0 min,  0.000 sec (  0.223%)
 Dispersion                     ...        0 min,  0.001 sec (  0.774%)
 classical contributions        ...        0 min,  0.000 sec (  0.045%)
 integral evaluation            ...        0 min,  0.008 sec (  5.494%)
 iterations                     ...        0 min,  0.114 sec ( 81.568%)
 molecular gradient             ...        0 min,  0.015 sec ( 10.683%)
 printout                       ...        0 min,  0.002 sec (  1.184%)

         :::::::::::::::::::::::::::::::::::::::::::::::::::::
         ::                     SUMMARY                     ::
         :::::::::::::::::::::::::::::::::::::::::::::::::::::
         :: total energy            -102.696058338006 Eh    ::
         :: gradient norm              0.246062694207 Eh/a0 ::
         :: HOMO-LUMO gap              1.236998662528 eV    ::
         ::.................................................::
         :: SCC energy              -104.277833183174 Eh    ::
         :: -> isotropic ES            0.107144598478 Eh    ::
         :: -> anisotropic ES          0.010689702491 Eh    ::
         :: -> anisotropic XC          0.048423990335 Eh    ::
         :: -> dispersion             -0.104899311773 Eh    ::
         :: repulsion energy           1.510444930702 Eh    ::
         :: add. restraining           0.071329914466 Eh    ::
         :: total charge               0.000000000002 e     ::
         :::::::::::::::::::::::::::::::::::::::::::::::::::::

      ----------------------------------------------------------- 
     |                   =====================                   |
     |                        A N C O P T                        |
     |                   =====================                   |
     |               Approximate Normal Coordinate               |
     |                Rational Function Optimizer                |
      ----------------------------------------------------------- 
      ----------------------------------------------------------- 
     |                   =====================                   |
     |                        A N C O P T                        |
     |                   =====================                   |
     |               Approximate Normal Coordinate               |
     |                Rational Function Optimizer                |
      ----------------------------------------------------------- 

          ...................................................
          :                      SETUP                      :
          :.................................................:
          :   optimization level         verytight          :
          :   max. optcycles                  1460          :
          :   ANC micro-cycles                  20          :
          :   degrees of freedom               213          :
          :.................................................:
          :   RF solver                   davidson          :
          :   write xtbopt.log                true          :
          :   linear?                        false          :
          :   energy convergence         0.1000000E-06 Eh   :
          :   grad. convergence          0.2000000E-03 Eh/α :
          :   maxmium RF displ.          1.0000000          :
          :   Hlow (freq-cutoff)         0.1000000E-01      :
          :   Hmax (freq-cutoff)         5.0000000          :
          :   S6 in model hess.         20.0000000          :
          ...................................................

generating ANC from exact Hessian ...
Using Lindh-Hessian (1995)
 Shifting diagonal of input Hessian by   1.104622436763939E-002
 Lowest  eigenvalues of input Hessian
    0.010000    0.000000    0.000000    0.000000    0.000000    0.000000
    0.000000    0.011216    0.011318    0.011564    0.011607    0.011789
    0.012000    0.012143    0.012245    0.012419    0.012485    0.012789
 Highest eigenvalues
    2.048348    2.055425    2.068525    2.172749    2.256674    2.373011
 

........................................................................
.............................. CYCLE    1 ..............................
........................................................................

 iter      E             dE          RMSdq      gap      omega  full diag
   1   -104.2818904 -0.104282E+03  0.967E-05    1.24       0.0  T
   2   -104.2818904  0.707885E-09  0.120E-04    1.24      97.6  T
   3   -104.2818904  0.752991E-09  0.164E-04    1.24      71.4  T
     SCC iter.                  ...        0 min,  0.023 sec
     gradient                   ...        0 min,  0.014 sec
 * total energy  :  -102.6960583 Eh     change       -0.3314142E-08 Eh
   gradient norm :     0.2460591 Eh/α   predicted     0.0000000E+00 (-100.00%)
   displ. norm   :     0.4352365 α      lambda       -0.8205782E-01
   maximum displ.:     0.1220572 α      in ANC's #91, #154, #123, ...

........................................................................
.............................. CYCLE    2 ..............................
........................................................................

 iter      E             dE          RMSdq      gap      omega  full diag
   1   -104.2592241 -0.104259E+03  0.564E-01    1.25       0.0  T
   2   -104.2471035  0.121206E-01  0.611E-01    1.18       1.0  T
   3   -104.2471051 -0.154644E-05  0.597E-01    1.36       1.0  T
   4   -104.2681879 -0.210829E-01  0.210E-01    1.29       1.0  T
   5   -104.2670557  0.113224E-02  0.197E-01    1.34       1.0  T
   6   -104.2692581 -0.220247E-02  0.532E-02    1.33       1.0  T
   7   -104.2693089 -0.507172E-04  0.324E-02    1.33       1.0  T
   8   -104.2693179 -0.905847E-05  0.196E-02    1.33       1.0  T
   9   -104.2693235 -0.553993E-05  0.876E-03    1.33       1.3  T
  10   -104.2693267 -0.324388E-05  0.452E-03    1.32       2.6  T
  11   -104.2693277 -0.102187E-05  0.189E-03    1.32       6.2  T
  12   -104.2693278 -0.365782E-07  0.123E-03    1.32       9.5  T
  13   -104.2693278 -0.985467E-08  0.901E-04    1.32      13.0  T
  14   -104.2693278  0.132246E-07  0.787E-04    1.32      14.9  T
     SCC iter.                  ...        0 min,  0.072 sec
     gradient                   ...        0 min,  0.012 sec
 * total energy  :  -102.7534702 Eh     change       -0.5741186E-01 Eh
   gradient norm :     0.0924525 Eh/α   predicted    -0.4880145E-01 ( -15.00%)
   displ. norm   :     0.4558878 α      lambda       -0.2609592E-01
   maximum displ.:     0.1638430 α      in ANC's #24, #91, #80, ...

........................................................................
.............................. CYCLE    3 ..............................
........................................................................

 iter      E             dE          RMSdq      gap      omega  full diag
   1   -104.2639310 -0.104264E+03  0.351E-01    1.34       0.0  T
   2   -104.2469300  0.170010E-01  0.542E-01    1.22       1.0  T
   3   -104.2613724 -0.144424E-01  0.358E-01    1.40       1.0  T
   4   -104.2680923 -0.671993E-02  0.127E-01    1.35       1.0  T
   5   -104.2674472  0.645142E-03  0.110E-01    1.39       1.0  T
   6   -104.2682363 -0.789105E-03  0.287E-02    1.37       1.0  T
   7   -104.2682363  0.309671E-07  0.179E-02    1.37       1.0  T
   8   -104.2682359  0.387700E-06  0.115E-02    1.37       1.0  T
   9   -104.2682410 -0.507591E-05  0.530E-03    1.37       2.2  T
  10   -104.2682424 -0.143222E-05  0.200E-03    1.37       5.9  T
  11   -104.2682424 -0.380082E-07  0.134E-03    1.37       8.7  T
  12   -104.2682425 -0.244632E-07  0.813E-04    1.37      14.4  T
  13   -104.2682425 -0.193732E-08  0.569E-04    1.37      20.6  T
     SCC iter.                  ...        0 min,  0.061 sec
     gradient                   ...        0 min,  0.012 sec
 * total energy  :  -102.7696709 Eh     change       -0.1620067E-01 Eh
   gradient norm :     0.0284701 Eh/α   predicted    -0.1575977E-01 (  -2.72%)
   displ. norm   :     0.4831645 α      lambda       -0.7107387E-02
   maximum displ.:     0.2463333 α      in ANC's #24, #21, #15, ...

........................................................................
.............................. CYCLE    4 ..............................
........................................................................

 iter      E             dE          RMSdq      gap      omega  full diag
   1   -104.2761046 -0.104276E+03  0.164E-01    1.41       0.0  T
   2   -104.2739724  0.213217E-02  0.186E-01    1.39       1.0  T
   3   -104.2718697  0.210277E-02  0.266E-01    1.44       1.0  T
   4   -104.2760811 -0.421146E-02  0.775E-02    1.41       1.0  T
   5   -104.2763288 -0.247640E-03  0.256E-02    1.42       1.0  T
   6   -104.2763477 -0.189889E-04  0.140E-02    1.41       1.0  T
   7   -104.2763514 -0.362473E-05  0.581E-03    1.42       2.0  T
   8   -104.2763515 -0.146630E-06  0.263E-03    1.42       4.5  T
   9   -104.2763516 -0.116458E-06  0.167E-03    1.42       7.0  T
  10   -104.2763518 -0.164045E-06  0.610E-04    1.42      19.2  T
  11   -104.2763518 -0.422153E-08  0.356E-04    1.42      32.8  T
     SCC iter.                  ...        0 min,  0.052 sec
     gradient                   ...        0 min,  0.013 sec
 * total energy  :  -102.7752115 Eh     change       -0.5540659E-02 Eh
   gradient norm :     0.0226989 Eh/α   predicted    -0.4383329E-02 ( -20.89%)
   displ. norm   :     0.6260427 α      lambda       -0.5949447E-02
   maximum displ.:     0.3177926 α      in ANC's #24, #15, #21, ...

........................................................................
.............................. CYCLE    5 ..............................
........................................................................

 iter      E             dE          RMSdq      gap      omega  full diag
   1   -104.2823685 -0.104282E+03  0.178E-01    1.46       0.0  T
   2   -104.2823552  0.133872E-04  0.116E-01    1.46       1.0  T
   3   -104.2782491  0.410603E-02  0.241E-01    1.49       1.0  T
   4   -104.2822519 -0.400280E-02  0.566E-02    1.46       1.0  T
   5   -104.2824550 -0.203041E-03  0.272E-02    1.47       1.0  T
   6   -104.2824747 -0.196900E-04  0.141E-02    1.46       1.0  T
   7   -104.2824763 -0.163228E-05  0.708E-03    1.46       1.7  T
   8   -104.2824772 -0.937489E-06  0.347E-03    1.46       3.4  T
   9   -104.2824773 -0.118363E-06  0.238E-03    1.46       4.9  T
  10   -104.2824777 -0.329258E-06  0.781E-04    1.46      15.0  T
  11   -104.2824777 -0.333169E-08  0.444E-04    1.46      26.4  T
     SCC iter.                  ...        0 min,  0.051 sec
     gradient                   ...        0 min,  0.012 sec
 * total energy  :  -102.7795822 Eh     change       -0.4370709E-02 Eh
   gradient norm :     0.0198812 Eh/α   predicted    -0.4140617E-02 (  -5.26%)
   displ. norm   :     0.5922420 α      lambda       -0.3757934E-02
   maximum displ.:     0.2987676 α      in ANC's #24, #22, #7, ...

........................................................................
.............................. CYCLE    6 ..............................
........................................................................

 iter      E             dE          RMSdq      gap      omega  full diag
   1   -104.2880819 -0.104288E+03  0.164E-01    1.50       0.0  T
   2   -104.2865028  0.157909E-02  0.196E-01    1.52       1.0  T
   3   -104.2876384 -0.113557E-02  0.108E-01    1.49       1.0  T
   4   -104.2881079 -0.469450E-03  0.484E-02    1.52       1.0  T
   5   -104.2882376 -0.129722E-03  0.205E-02    1.51       1.0  T
   6   -104.2882468 -0.918024E-05  0.101E-02    1.51       1.2  T
   7   -104.2882474 -0.684814E-06  0.461E-03    1.51       2.5  T
   8   -104.2882476 -0.195897E-06  0.230E-03    1.51       5.1  T
   9   -104.2882478 -0.176115E-06  0.113E-03    1.51      10.4  T
  10   -104.2882478  0.106435E-07  0.789E-04    1.51      14.8  T
  11   -104.2882478 -0.234669E-07  0.330E-04    1.51      35.5  T
     SCC iter.                  ...        0 min,  0.057 sec
     gradient                   ...        0 min,  0.012 sec
 * total energy  :  -102.7821833 Eh     change       -0.2601086E-02 Eh
   gradient norm :     0.0152360 Eh/α   predicted    -0.2538015E-02 (  -2.42%)
   displ. norm   :     0.5919709 α      lambda       -0.2721988E-02
   maximum displ.:     0.2446436 α      in ANC's #24, #7, #22, ...

........................................................................
.............................. CYCLE    7 ..............................
........................................................................

 iter      E             dE          RMSdq      gap      omega  full diag
   1   -104.2894501 -0.104289E+03  0.160E-01    1.53       0.0  T
   2   -104.2894749 -0.247932E-04  0.114E-01    1.54       1.0  T
   3   -104.2876437  0.183120E-02  0.144E-01    1.51       1.0  T
   4   -104.2884803 -0.836526E-03  0.114E-01    1.56       1.0  T
   5   -104.2895373 -0.105706E-02  0.188E-02    1.54       1.0  T
   6   -104.2895462 -0.888956E-05  0.114E-02    1.54       1.0  T
   7   -104.2895477 -0.152231E-05  0.583E-03    1.54       2.0  T
   8   -104.2895484 -0.698089E-06  0.215E-03    1.54       5.5  T
   9   -104.2895486 -0.147712E-06  0.887E-04    1.54      13.2  T
  10   -104.2895486 -0.808987E-08  0.608E-04    1.54      19.2  T
     SCC iter.                  ...        0 min,  0.053 sec
     gradient                   ...        0 min,  0.012 sec
 * total energy  :  -102.7851848 Eh     change       -0.3001491E-02 Eh
   gradient norm :     0.0423350 Eh/α   predicted    -0.1837931E-02 ( -38.77%)
   displ. norm   :     0.4942972 α      lambda       -0.8968414E-02
   maximum displ.:     0.2437615 α      in ANC's #16, #24, #15, ...

........................................................................
.............................. CYCLE    8 ..............................
........................................................................

 iter      E             dE          RMSdq      gap      omega  full diag
   1   -104.2908592 -0.104291E+03  0.248E-01    1.52       0.0  T
   2   -104.2741327  0.167265E-01  0.475E-01    1.37       1.0  T
   3   -104.2938111 -0.196783E-01  0.110E-01    1.51       1.0  T
   4   -104.2937294  0.816947E-04  0.735E-02    1.51       1.0  T
   5   -104.2939130 -0.183610E-03  0.422E-02    1.51       1.0  T
   6   -104.2939419 -0.289018E-04  0.264E-02    1.51       1.0  T
   7   -104.2939529 -0.110495E-04  0.113E-02    1.51       1.0  T
   8   -104.2939535 -0.613409E-06  0.740E-03    1.51       1.6  T
   9   -104.2939540 -0.425154E-06  0.459E-03    1.51       2.6  T
  10   -104.2939540 -0.412241E-07  0.253E-03    1.51       4.6  T
  11   -104.2939541 -0.101175E-06  0.119E-03    1.51       9.9  T
  12   -104.2939541 -0.845435E-08  0.493E-04    1.51      23.7  T
  13   -104.2939541 -0.106446E-07  0.198E-04    1.51      59.2  T
     SCC iter.                  ...        0 min,  0.068 sec
     gradient                   ...        0 min,  0.012 sec
 * total energy  :  -102.7836532 Eh     change        0.1531575E-02 Eh
   gradient norm :     0.0405900 Eh/α   predicted    -0.5579833E-02 (-464.32%)
   displ. norm   :     0.2115530 α      lambda       -0.3268811E-02
   maximum displ.:     0.0885031 α      in ANC's #7, #32, #10, ...

........................................................................
.............................. CYCLE    9 ..............................
........................................................................

 iter      E             dE          RMSdq      gap      omega  full diag
   1   -104.2913236 -0.104291E+03  0.119E-01    1.52       0.0  T
   2   -104.2827186  0.860497E-02  0.339E-01    1.58       1.0  T
   3   -104.2921696 -0.945097E-02  0.790E-02    1.55       1.0  T
   4   -104.2923826 -0.213044E-03  0.304E-02    1.55       1.0  T
   5   -104.2924035 -0.208469E-04  0.185E-02    1.54       1.0  T
   6   -104.2924095 -0.599647E-05  0.139E-02    1.54       1.0  T
   7   -104.2924115 -0.202151E-05  0.854E-03    1.54       1.4  T
   8   -104.2924129 -0.137710E-05  0.396E-03    1.54       3.0  T
   9   -104.2924129 -0.318251E-07  0.260E-03    1.54       4.5  T
  10   -104.2924131 -0.158931E-06  0.137E-03    1.54       8.5  T
  11   -104.2924131 -0.245662E-07  0.653E-04    1.54      17.9  T
  12   -104.2924131 -0.226132E-08  0.314E-04    1.54      37.3  T
     SCC iter.                  ...        0 min,  0.057 sec
     gradient                   ...        0 min,  0.012 sec
 * total energy  :  -102.7861132 Eh     change       -0.2460008E-02 Eh
   gradient norm :     0.0249054 Eh/α   predicted    -0.1707568E-02 ( -30.59%)
   displ. norm   :     0.3487683 α      lambda       -0.3638137E-02
   maximum displ.:     0.1331454 α      in ANC's #24, #7, #10, ...

........................................................................
.............................. CYCLE   10 ..............................
........................................................................

 iter      E             dE          RMSdq      gap      omega  full diag
   1   -104.2972151 -0.104297E+03  0.240E-01    1.52       0.0  T
   2   -104.2704749  0.267402E-01  0.589E-01    1.60       1.0  T
   3   -104.3011462 -0.306713E-01  0.935E-02    1.56       1.0  T
   4   -104.3012045 -0.583750E-04  0.615E-02    1.56       1.0  T
   5   -104.3012550 -0.504702E-04  0.354E-02    1.56       1.0  T
   6   -104.3012744 -0.193422E-04  0.215E-02    1.56       1.0  T
   7   -104.3012737  0.672698E-06  0.156E-02    1.56       1.0  T
   8   -104.3012817 -0.804462E-05  0.601E-03    1.56       1.9  T
   9   -104.3012821 -0.391147E-06  0.391E-03    1.56       3.0  T
  10   -104.3012824 -0.304383E-06  0.253E-03    1.56       4.6  T
  11   -104.3012825 -0.104773E-06  0.160E-03    1.56       7.3  T
  12   -104.3012826 -0.177181E-07  0.723E-04    1.56      16.2  T
  13   -104.3012826 -0.695371E-08  0.277E-04    1.56      42.2  T
     SCC iter.                  ...        0 min,  0.059 sec
     gradient                   ...        0 min,  0.012 sec
 * total energy  :  -102.7863646 Eh     change       -0.2513802E-03 Eh
   gradient norm :     0.0629938 Eh/α   predicted    -0.2040361E-02 ( 711.66%)
   displ. norm   :     0.1793206 α      lambda       -0.5003113E-02
   maximum displ.:     0.0648128 α      in ANC's #24, #16, #22, ...

........................................................................
.............................. CYCLE   11 ..............................
........................................................................

 iter      E             dE          RMSdq      gap      omega  full diag
   1   -104.2947906 -0.104295E+03  0.143E-01    1.57       0.0  T
   2   -104.2859513  0.883936E-02  0.333E-01    1.47       1.0  T
   3   -104.2960020 -0.100508E-01  0.560E-02    1.55       1.0  T
   4   -104.2959998  0.221987E-05  0.336E-02    1.55       1.0  T
   5   -104.2960301 -0.302297E-04  0.190E-02    1.56       1.0  T
   6   -104.2960373 -0.726616E-05  0.134E-02    1.56       1.0  T
   7   -104.2960381 -0.760058E-06  0.849E-03    1.56       1.4  T
   8   -104.2960398 -0.174578E-05  0.381E-03    1.56       3.1  T
   9   -104.2960400 -0.166203E-06  0.250E-03    1.56       4.7  T
  10   -104.2960400 -0.386592E-07  0.153E-03    1.56       7.6  T
  11   -104.2960401 -0.388251E-07  0.731E-04    1.56      16.0  T
  12   -104.2960401  0.381380E-08  0.429E-04    1.56      27.3  T
     SCC iter.                  ...        0 min,  0.058 sec
     gradient                   ...        0 min,  0.012 sec
 * total energy  :  -102.7876426 Eh     change       -0.1277998E-02 Eh
   gradient norm :     0.0125515 Eh/α   predicted    -0.2581997E-02 ( 102.03%)
   displ. norm   :     0.2513141 α      lambda       -0.6369397E-03
   maximum displ.:     0.1353172 α      in ANC's #7, #10, #29, ...

........................................................................
.............................. CYCLE   12 ..............................
........................................................................

 iter      E             dE          RMSdq      gap      omega  full diag
   1   -104.2931958 -0.104293E+03  0.745E-02    1.56       0.0  T
   2   -104.2904359  0.275990E-02  0.193E-01    1.59       1.0  T
   3   -104.2933748 -0.293889E-02  0.550E-02    1.57       1.0  T
   4   -104.2934278 -0.529427E-04  0.216E-02    1.58       1.0  T
   5   -104.2934586 -0.308863E-04  0.102E-02    1.57       1.1  T
   6   -104.2934597 -0.105975E-05  0.715E-03    1.57       1.6  T
   7   -104.2934593  0.397015E-06  0.371E-03    1.57       3.2  T
   8   -104.2934600 -0.711451E-06  0.135E-03    1.57       8.6  T
   9   -104.2934600 -0.466213E-08  0.712E-04    1.57      16.4  T
  10   -104.2934600 -0.147755E-07  0.415E-04    1.57      28.2  T
     SCC iter.                  ...        0 min,  0.050 sec
     gradient                   ...        0 min,  0.012 sec
 * total energy  :  -102.7881761 Eh     change       -0.5334957E-03 Eh
   gradient norm :     0.0123047 Eh/α   predicted    -0.3385934E-03 ( -36.53%)
   displ. norm   :     0.5392118 α      lambda       -0.1410213E-02
   maximum displ.:     0.3181327 α      in ANC's #7, #10, #29, ...

........................................................................
.............................. CYCLE   13 ..............................
........................................................................

 iter      E             dE          RMSdq      gap      omega  full diag
   1   -104.2934544 -0.104293E+03  0.166E-01    1.57       0.0  T
   2   -104.2784079  0.150465E-01  0.435E-01    1.63       1.0  T
   3   -104.2948834 -0.164755E-01  0.931E-02    1.60       1.0  T
   4   -104.2950372 -0.153786E-03  0.343E-02    1.61       1.0  T
   5   -104.2950634 -0.262374E-04  0.215E-02    1.60       1.0  T
   6   -104.2950728 -0.942241E-05  0.153E-02    1.60       1.0  T
   7   -104.2950731 -0.311267E-06  0.871E-03    1.60       1.3  T
   8   -104.2950747 -0.158452E-05  0.392E-03    1.60       3.0  T
   9   -104.2950747  0.400350E-07  0.265E-03    1.60       4.4  T
  10   -104.2950751 -0.423978E-06  0.105E-03    1.60      11.1  T
  11   -104.2950751 -0.139668E-07  0.596E-04    1.60      19.6  T
  12   -104.2950751 -0.163334E-08  0.358E-04    1.60      32.7  T
     SCC iter.                  ...        0 min,  0.059 sec
     gradient                   ...        0 min,  0.013 sec
 * total energy  :  -102.7889566 Eh     change       -0.7804436E-03 Eh
   gradient norm :     0.0203598 Eh/α   predicted    -0.9101161E-03 (  16.62%)
   displ. norm   :     0.2208182 α      lambda       -0.5279316E-03
   maximum displ.:     0.1347622 α      in ANC's #7, #10, #29, ...

........................................................................
.............................. CYCLE   14 ..............................
........................................................................

 iter      E             dE          RMSdq      gap      omega  full diag
   1   -104.2954305 -0.104295E+03  0.526E-02    1.60       0.0  T
   2   -104.2952969  0.133651E-03  0.569E-02    1.61       1.0  T
   3   -104.2953161 -0.191956E-04  0.416E-02    1.60       1.0  T
   4   -104.2953961 -0.800665E-04  0.259E-02    1.61       1.0  T
   5   -104.2954518 -0.556169E-04  0.593E-03    1.60       2.0  T
   6   -104.2954525 -0.770939E-06  0.365E-03    1.60       3.2  T
   7   -104.2954526 -0.651182E-07  0.183E-03    1.60       6.4  T
   8   -104.2954526 -0.414071E-07  0.663E-04    1.60      17.6  T
   9   -104.2954527 -0.115605E-07  0.308E-04    1.60      38.1  T
     SCC iter.                  ...        0 min,  0.044 sec
     gradient                   ...        0 min,  0.013 sec
 * total energy  :  -102.7893430 Eh     change       -0.3864735E-03 Eh
   gradient norm :     0.0094401 Eh/α   predicted    -0.2768374E-03 ( -28.37%)
   displ. norm   :     0.4729547 α      lambda       -0.7291859E-03
   maximum displ.:     0.2929651 α      in ANC's #7, #10, #29, ...

........................................................................
.............................. CYCLE   15 ..............................
........................................................................

 iter      E             dE          RMSdq      gap      omega  full diag
   1   -104.2951057 -0.104295E+03  0.111E-01    1.61       0.0  T
   2   -104.2936810  0.142470E-02  0.153E-01    1.63       1.0  T
   3   -104.2950307 -0.134975E-02  0.723E-02    1.61       1.0  T
   4   -104.2951249 -0.941171E-04  0.452E-02    1.62       1.0  T
   5   -104.2952889 -0.164034E-03  0.129E-02    1.62       1.0  T
   6   -104.2952926 -0.373941E-05  0.761E-03    1.62       1.5  T
   7   -104.2952939 -0.124734E-05  0.427E-03    1.62       2.7  T
   8   -104.2952940 -0.104277E-06  0.218E-03    1.62       5.4  T
   9   -104.2952941 -0.170779E-06  0.723E-04    1.62      16.2  T
  10   -104.2952942 -0.117289E-07  0.390E-04    1.62      30.0  T
     SCC iter.                  ...        0 min,  0.049 sec
     gradient                   ...        0 min,  0.013 sec
 * total energy  :  -102.7898184 Eh     change       -0.4753711E-03 Eh
   gradient norm :     0.0093207 Eh/α   predicted    -0.4461479E-03 (  -6.15%)
   displ. norm   :     0.4820557 α      lambda       -0.5405828E-03
   maximum displ.:     0.3116367 α      in ANC's #7, #10, #4, ...

........................................................................
.............................. CYCLE   16 ..............................
........................................................................

 iter      E             dE          RMSdq      gap      omega  full diag
   1   -104.2957345 -0.104296E+03  0.113E-01    1.62       0.0  T
   2   -104.2927388  0.299569E-02  0.201E-01    1.64       1.0  T
   3   -104.2960273 -0.328852E-02  0.616E-02    1.62       1.0  T
   4   -104.2959343  0.929733E-04  0.379E-02    1.63       1.0  T
   5   -104.2960399 -0.105619E-03  0.143E-02    1.62       1.0  T
   6   -104.2960417 -0.173740E-05  0.877E-03    1.62       1.3  T
   7   -104.2960412  0.461327E-06  0.464E-03    1.62       2.5  T
   8   -104.2960419 -0.659936E-06  0.170E-03    1.62       6.9  T
   9   -104.2960419 -0.719007E-07  0.720E-04    1.62      16.3  T
  10   -104.2960420 -0.933018E-08  0.414E-04    1.62      28.3  T
     SCC iter.                  ...        0 min,  0.049 sec
     gradient                   ...        0 min,  0.013 sec
 * total energy  :  -102.7901832 Eh     change       -0.3647756E-03 Eh
   gradient norm :     0.0078658 Eh/α   predicted    -0.3331033E-03 (  -8.68%)
   displ. norm   :     0.3706164 α      lambda       -0.3322496E-03
   maximum displ.:     0.2479981 α      in ANC's #7, #4, #10, ...

........................................................................
.............................. CYCLE   17 ..............................
........................................................................

 iter      E             dE          RMSdq      gap      omega  full diag
   1   -104.2991385 -0.104299E+03  0.834E-02    1.62       0.0  T
   2   -104.2980218  0.111671E-02  0.126E-01    1.64       1.0  T
   3   -104.2991878 -0.116601E-02  0.479E-02    1.62       1.0  T
   4   -104.2992041 -0.162387E-04  0.259E-02    1.63       1.0  T
   5   -104.2992514 -0.473595E-04  0.988E-03    1.62       1.2  T
   6   -104.2992522 -0.783436E-06  0.591E-03    1.62       2.0  T
   7   -104.2992522  0.298396E-07  0.359E-03    1.63       3.3  T
   8   -104.2992525 -0.290798E-06  0.144E-03    1.63       8.1  T
   9   -104.2992525 -0.622218E-07  0.555E-04    1.63      21.1  T
  10   -104.2992525 -0.760937E-08  0.307E-04    1.63      38.1  T
     SCC iter.                  ...        0 min,  0.047 sec
     gradient                   ...        0 min,  0.013 sec
 * total energy  :  -102.7904401 Eh     change       -0.2569211E-03 Eh
   gradient norm :     0.0073667 Eh/α   predicted    -0.1889438E-03 ( -26.46%)
   displ. norm   :     0.4899305 α      lambda       -0.3864963E-03
   maximum displ.:     0.3192568 α      in ANC's #7, #4, #10, ...

........................................................................
.............................. CYCLE   18 ..............................
........................................................................

 iter      E             dE          RMSdq      gap      omega  full diag
   1   -104.2983254 -0.104298E+03  0.110E-01    1.62       0.0  T
   2   -104.2963233  0.200213E-02  0.168E-01    1.64       1.0  T
   3   -104.2984460 -0.212276E-02  0.620E-02    1.62       1.0  T
   4   -104.2984498 -0.374635E-05  0.322E-02    1.63       1.0  T
   5   -104.2985174 -0.676160E-04  0.140E-02    1.63       1.0  T
   6   -104.2985188 -0.142209E-05  0.790E-03    1.63       1.5  T
   7   -104.2985182  0.634734E-06  0.527E-03    1.63       2.2  T
   8   -104.2985192 -0.105993E-05  0.182E-03    1.63       6.4  T
   9   -104.2985193 -0.554937E-07  0.851E-04    1.63      13.7  T
  10   -104.2985193 -0.901446E-08  0.487E-04    1.63      24.0  T
     SCC iter.                  ...        0 min,  0.049 sec
     gradient                   ...        0 min,  0.013 sec
 * total energy  :  -102.7906767 Eh     change       -0.2365686E-03 Eh
   gradient norm :     0.0072257 Eh/α   predicted    -0.2396352E-03 (   1.30%)
   displ. norm   :     0.3447260 α      lambda       -0.3326043E-03
   maximum displ.:     0.2225985 α      in ANC's #7, #4, #11, ...

........................................................................
.............................. CYCLE   19 ..............................
........................................................................

 iter      E             dE          RMSdq      gap      omega  full diag
   1   -104.3026169 -0.104303E+03  0.733E-02    1.63       0.0  T
   2   -104.3021957  0.421115E-03  0.822E-02    1.63       1.0  T
   3   -104.3023086 -0.112833E-03  0.640E-02    1.62       1.0  T
   4   -104.3026565 -0.347920E-03  0.132E-02    1.63       1.0  T
   5   -104.3026595 -0.300503E-05  0.853E-03    1.63       1.4  T
   6   -104.3026603 -0.810336E-06  0.543E-03    1.63       2.2  T
   7   -104.3026603 -0.757302E-08  0.310E-03    1.63       3.8  T
   8   -104.3026606 -0.317270E-06  0.141E-03    1.63       8.3  T
   9   -104.3026607 -0.390768E-07  0.637E-04    1.63      18.4  T
  10   -104.3026607 -0.712380E-08  0.364E-04    1.63      32.2  T
     SCC iter.                  ...        0 min,  0.048 sec
     gradient                   ...        0 min,  0.012 sec
 * total energy  :  -102.7908510 Eh     change       -0.1742766E-03 Eh
   gradient norm :     0.0053961 Eh/α   predicted    -0.1860672E-03 (   6.77%)
   displ. norm   :     0.2625249 α      lambda       -0.1337757E-03
   maximum displ.:     0.1767443 α      in ANC's #7, #4, #10, ...

........................................................................
.............................. CYCLE   20 ..............................
........................................................................

 iter      E             dE          RMSdq      gap      omega  full diag
   1   -104.2996414 -0.104300E+03  0.602E-02    1.63       0.0  T
   2   -104.2990354  0.606026E-03  0.887E-02    1.63       1.0  T
   3   -104.2996276 -0.592224E-03  0.373E-02    1.62       1.0  T
   4   -104.2996886 -0.609644E-04  0.986E-03    1.63       1.2  T
   5   -104.2996932 -0.462235E-05  0.517E-03    1.63       2.3  T
   6   -104.2996933 -0.359688E-07  0.331E-03    1.63       3.5  T
   7   -104.2996933 -0.166290E-07  0.197E-03    1.63       5.9  T
   8   -104.2996934 -0.162082E-06  0.880E-04    1.63      13.3  T
   9   -104.2996935 -0.150046E-07  0.387E-04    1.63      30.2  T
     SCC iter.                  ...        0 min,  0.043 sec
     gradient                   ...        0 min,  0.013 sec
 * total energy  :  -102.7909332 Eh     change       -0.8227767E-04 Eh
   gradient norm :     0.0048851 Eh/α   predicted    -0.7149759E-04 ( -13.10%)
   displ. norm   :     0.1887227 α      lambda       -0.1163616E-03
   maximum displ.:     0.1138333 α      in ANC's #7, #11, #3, ...
 * RMSD in coord.:     0.6627179 α      energy gain  -0.9487489E-01 Eh

generating ANC from exact Hessian ...
Using Lindh-Hessian (1995)
 Shifting diagonal of input Hessian by   1.012917173652193E-002
 Lowest  eigenvalues of input Hessian
    0.010000    0.000000    0.000000    0.000000    0.000000    0.000000
    0.000000    0.010277    0.010338    0.010469    0.010673    0.010726
    0.010909    0.011181    0.011341    0.011453    0.011534    0.011815
 Highest eigenvalues
    2.022800    2.035788    2.092133    2.326441    2.411432    2.737522
 

........................................................................
.............................. CYCLE   21 ..............................
........................................................................

 iter      E             dE          RMSdq      gap      omega  full diag
   1   -104.3006798 -0.104301E+03  0.396E-02    1.63       0.0  T
   2   -104.3005348  0.145035E-03  0.453E-02    1.63       1.0  T
   3   -104.3005725 -0.376848E-04  0.373E-02    1.62       1.0  T
   4   -104.3006912 -0.118664E-03  0.558E-03    1.63       2.1  T
   5   -104.3006925 -0.136957E-05  0.297E-03    1.63       3.9  T
   6   -104.3006928 -0.241169E-06  0.174E-03    1.63       6.7  T
   7   -104.3006928 -0.460659E-09  0.111E-03    1.63      10.6  T
   8   -104.3006928 -0.565183E-07  0.592E-04    1.63      19.8  T
   9   -104.3006928 -0.588228E-08  0.362E-04    1.63      32.3  T
     SCC iter.                  ...        0 min,  0.044 sec
     gradient                   ...        0 min,  0.013 sec
 * total energy  :  -102.7910138 Eh     change       -0.8060305E-04 Eh
   gradient norm :     0.0044975 Eh/α   predicted     0.0000000E+00 (-100.00%)
   displ. norm   :     0.1873212 α      lambda       -0.4273675E-03
   maximum displ.:     0.1101365 α      in ANC's #3, #1, #2, ...

........................................................................
.............................. CYCLE   22 ..............................
........................................................................

 iter      E             dE          RMSdq      gap      omega  full diag
   1   -104.3017180 -0.104302E+03  0.292E-02    1.63       0.0  T
   2   -104.3013380  0.380084E-03  0.638E-02    1.62       1.0  T
   3   -104.3017490 -0.410993E-03  0.151E-02    1.63       1.0  T
   4   -104.3017517 -0.278168E-05  0.755E-03    1.63       1.6  T
   5   -104.3017521 -0.348011E-06  0.451E-03    1.63       2.6  T
   6   -104.3017526 -0.473894E-06  0.249E-03    1.63       4.7  T
   7   -104.3017527 -0.118546E-06  0.122E-03    1.63       9.6  T
   8   -104.3017527 -0.348634E-07  0.707E-04    1.63      16.6  T
   9   -104.3017527 -0.119527E-09  0.539E-04    1.63      21.7  T
     SCC iter.                  ...        0 min,  0.044 sec
     gradient                   ...        0 min,  0.012 sec
 * total energy  :  -102.7913913 Eh     change       -0.3774812E-03 Eh
   gradient norm :     0.0043790 Eh/α   predicted    -0.2214930E-03 ( -41.32%)
   displ. norm   :     0.5038904 α      lambda       -0.1017116E-02
   maximum displ.:     0.2746619 α      in ANC's #1, #3, #2, ...

........................................................................
.............................. CYCLE   23 ..............................
........................................................................

 iter      E             dE          RMSdq      gap      omega  full diag
   1   -104.3032282 -0.104303E+03  0.655E-02    1.64       0.0  T
   2   -104.3031698  0.584791E-04  0.474E-02    1.64       1.0  T
   3   -104.3024218  0.747926E-03  0.909E-02    1.65       1.0  T
   4   -104.3032127 -0.790861E-03  0.219E-02    1.64       1.0  T
   5   -104.3032460 -0.332467E-04  0.870E-03    1.64       1.3  T
   6   -104.3032465 -0.596449E-06  0.564E-03    1.64       2.1  T
   7   -104.3032480 -0.141390E-05  0.251E-03    1.64       4.7  T
   8   -104.3032481 -0.130055E-06  0.118E-03    1.64       9.9  T
   9   -104.3032481  0.419320E-08  0.924E-04    1.64      12.7  T
  10   -104.3032481 -0.250291E-07  0.506E-04    1.64      23.1  T
     SCC iter.                  ...        0 min,  0.049 sec
     gradient                   ...        0 min,  0.013 sec
 * total energy  :  -102.7922977 Eh     change       -0.9064106E-03 Eh
   gradient norm :     0.0049799 Eh/α   predicted    -0.6376865E-03 ( -29.65%)
   displ. norm   :     0.7214978 α      lambda       -0.1263366E-02
   maximum displ.:     0.3989265 α      in ANC's #1, #3, #2, ...

........................................................................
.............................. CYCLE   24 ..............................
........................................................................

 iter      E             dE          RMSdq      gap      omega  full diag
   1   -104.3024188 -0.104302E+03  0.995E-02    1.65       0.0  T
   2   -104.3022806  0.138268E-03  0.734E-02    1.64       1.0  T
   3   -104.3004922  0.178836E-02  0.139E-01    1.66       1.0  T
   4   -104.3024052 -0.191300E-02  0.291E-02    1.64       1.0  T
   5   -104.3024583 -0.531061E-04  0.127E-02    1.65       1.0  T
   6   -104.3024594 -0.107838E-05  0.804E-03    1.65       1.5  T
   7   -104.3024619 -0.244515E-05  0.377E-03    1.65       3.1  T
   8   -104.3024621 -0.260959E-06  0.196E-03    1.65       6.0  T
   9   -104.3024621  0.557414E-08  0.151E-03    1.65       7.8  T
  10   -104.3024622 -0.527046E-07  0.837E-04    1.65      14.0  T
  11   -104.3024622 -0.747929E-08  0.470E-04    1.65      24.9  T
     SCC iter.                  ...        0 min,  0.053 sec
     gradient                   ...        0 min,  0.013 sec
 * total energy  :  -102.7934268 Eh     change       -0.1129098E-02 Eh
   gradient norm :     0.0062629 Eh/α   predicted    -0.9605394E-03 ( -14.93%)
   displ. norm   :     0.7825164 α      lambda       -0.1244611E-02
   maximum displ.:     0.4403565 α      in ANC's #1, #3, #2, ...

........................................................................
.............................. CYCLE   25 ..............................
........................................................................

 iter      E             dE          RMSdq      gap      omega  full diag
   1   -104.3009401 -0.104301E+03  0.968E-02    1.65       0.0  T
   2   -104.3005618  0.378304E-03  0.879E-02    1.64       1.0  T
   3   -104.2997805  0.781323E-03  0.115E-01    1.66       1.0  T
   4   -104.3009749 -0.119449E-02  0.246E-02    1.65       1.0  T
   5   -104.3010000 -0.250595E-04  0.132E-02    1.65       1.0  T
   6   -104.3010023 -0.228901E-05  0.798E-03    1.65       1.5  T
   7   -104.3010042 -0.194849E-05  0.375E-03    1.65       3.1  T
   8   -104.3010045 -0.237936E-06  0.196E-03    1.65       6.0  T
   9   -104.3010045 -0.185640E-07  0.145E-03    1.65       8.1  T
  10   -104.3010045 -0.462680E-07  0.798E-04    1.65      14.7  T
  11   -104.3010045 -0.315327E-08  0.392E-04    1.65      29.9  T
     SCC iter.                  ...        0 min,  0.055 sec
     gradient                   ...        0 min,  0.012 sec
 * total energy  :  -102.7945119 Eh     change       -0.1085109E-02 Eh
   gradient norm :     0.0055925 Eh/α   predicted    -0.1003363E-02 (  -7.53%)
   displ. norm   :     0.7488316 α      lambda       -0.1135089E-02
   maximum displ.:     0.4318321 α      in ANC's #1, #2, #3, ...

........................................................................
.............................. CYCLE   26 ..............................
........................................................................

 iter      E             dE          RMSdq      gap      omega  full diag
   1   -104.3008891 -0.104301E+03  0.993E-02    1.65       0.0  T
   2   -104.3006542  0.234911E-03  0.817E-02    1.63       1.0  T
   3   -104.2994588  0.119535E-02  0.123E-01    1.66       1.0  T
   4   -104.3009107 -0.145186E-02  0.254E-02    1.64       1.0  T
   5   -104.3009454 -0.347454E-04  0.113E-02    1.64       1.0  T
   6   -104.3009461 -0.643378E-06  0.716E-03    1.64       1.6  T
   7   -104.3009476 -0.154863E-05  0.328E-03    1.64       3.6  T
   8   -104.3009479 -0.262940E-06  0.175E-03    1.64       6.7  T
   9   -104.3009479 -0.310023E-07  0.112E-03    1.64      10.4  T
  10   -104.3009479 -0.781550E-08  0.595E-04    1.64      19.7  T
  11   -104.3009479  0.738979E-09  0.368E-04    1.64      31.8  T
     SCC iter.                  ...        0 min,  0.052 sec
     gradient                   ...        0 min,  0.012 sec
 * total energy  :  -102.7955009 Eh     change       -0.9890063E-03 Eh
   gradient norm :     0.0060428 Eh/α   predicted    -0.8857949E-03 ( -10.44%)
   displ. norm   :     0.7194616 α      lambda       -0.1039330E-02
   maximum displ.:     0.4242007 α      in ANC's #1, #2, #3, ...

........................................................................
.............................. CYCLE   27 ..............................
........................................................................

 iter      E             dE          RMSdq      gap      omega  full diag
   1   -104.3033391 -0.104303E+03  0.764E-02    1.64       0.0  T
   2   -104.3027017  0.637410E-03  0.964E-02    1.62       1.0  T
   3   -104.3032018 -0.500101E-03  0.596E-02    1.64       1.0  T
   4   -104.3034209 -0.219034E-03  0.173E-02    1.63       1.0  T
   5   -104.3034276 -0.675426E-05  0.105E-02    1.63       1.1  T
   6   -104.3034290 -0.132792E-05  0.595E-03    1.63       2.0  T
   7   -104.3034294 -0.431604E-06  0.296E-03    1.63       3.9  T
   8   -104.3034297 -0.274711E-06  0.155E-03    1.63       7.5  T
   9   -104.3034297 -0.312185E-07  0.985E-04    1.63      11.9  T
  10   -104.3034297 -0.260290E-08  0.615E-04    1.63      19.0  T
     SCC iter.                  ...        0 min,  0.051 sec
     gradient                   ...        0 min,  0.013 sec
 * total energy  :  -102.7964204 Eh     change       -0.9194540E-03 Eh
   gradient norm :     0.0058713 Eh/α   predicted    -0.7886591E-03 ( -14.23%)
   displ. norm   :     0.7138297 α      lambda       -0.9514972E-03
   maximum displ.:     0.4264096 α      in ANC's #1, #2, #3, ...

........................................................................
.............................. CYCLE   28 ..............................
........................................................................

 iter      E             dE          RMSdq      gap      omega  full diag
   1   -104.3059388 -0.104306E+03  0.689E-02    1.64       0.0  T
   2   -104.3053529  0.585921E-03  0.912E-02    1.61       1.0  T
   3   -104.3058840 -0.531105E-03  0.497E-02    1.63       1.0  T
   4   -104.3060187 -0.134706E-03  0.152E-02    1.62       1.0  T
   5   -104.3060231 -0.434436E-05  0.968E-03    1.62       1.2  T
   6   -104.3060245 -0.144099E-05  0.522E-03    1.62       2.2  T
   7   -104.3060246 -0.580457E-07  0.305E-03    1.62       3.8  T
   8   -104.3060249 -0.287542E-06  0.140E-03    1.62       8.3  T
   9   -104.3060249 -0.318491E-07  0.843E-04    1.62      13.9  T
  10   -104.3060249 -0.669621E-08  0.548E-04    1.62      21.4  T
     SCC iter.                  ...        0 min,  0.051 sec
     gradient                   ...        0 min,  0.013 sec
 * total energy  :  -102.7972602 Eh     change       -0.8397600E-03 Eh
   gradient norm :     0.0056789 Eh/α   predicted    -0.7181737E-03 ( -14.48%)
   displ. norm   :     0.7170621 α      lambda       -0.8641798E-03
   maximum displ.:     0.4285695 α      in ANC's #2, #1, #3, ...

........................................................................
.............................. CYCLE   29 ..............................
........................................................................

 iter      E             dE          RMSdq      gap      omega  full diag
   1   -104.3075106 -0.104308E+03  0.651E-02    1.63       0.0  T
   2   -104.3071715  0.339043E-03  0.708E-02    1.61       1.0  T
   3   -104.3072772 -0.105705E-03  0.614E-02    1.63       1.0  T
   4   -104.3075572 -0.279971E-03  0.112E-02    1.62       1.0  T
   5   -104.3075600 -0.274477E-05  0.757E-03    1.62       1.5  T
   6   -104.3075606 -0.621518E-06  0.450E-03    1.62       2.6  T
   7   -104.3075607 -0.132346E-06  0.225E-03    1.62       5.2  T
   8   -104.3075608 -0.117501E-06  0.128E-03    1.62       9.1  T
   9   -104.3075609 -0.295747E-07  0.749E-04    1.62      15.6  T
  10   -104.3075609 -0.484877E-08  0.462E-04    1.62      25.3  T
     SCC iter.                  ...        0 min,  0.052 sec
     gradient                   ...        0 min,  0.013 sec
 * total energy  :  -102.7980191 Eh     change       -0.7589726E-03 Eh
   gradient norm :     0.0051722 Eh/α   predicted    -0.6542654E-03 ( -13.80%)
   displ. norm   :     0.7129724 α      lambda       -0.7660179E-03
   maximum displ.:     0.4398676 α      in ANC's #2, #1, #3, ...

........................................................................
.............................. CYCLE   30 ..............................
........................................................................

 iter      E             dE          RMSdq      gap      omega  full diag
   1   -104.3085785 -0.104309E+03  0.620E-02    1.63       0.0  T
   2   -104.3084599  0.118567E-03  0.497E-02    1.61       1.0  T
   3   -104.3080432  0.416695E-03  0.788E-02    1.63       1.0  T
   4   -104.3085973 -0.554133E-03  0.899E-03    1.62       1.3  T
   5   -104.3085999 -0.259012E-05  0.530E-03    1.62       2.2  T
   6   -104.3086003 -0.361573E-06  0.333E-03    1.62       3.5  T
   7   -104.3086004 -0.130517E-06  0.177E-03    1.62       6.6  T
   8   -104.3086005 -0.454766E-07  0.967E-04    1.62      12.1  T
   9   -104.3086005 -0.205431E-07  0.548E-04    1.62      21.4  T
     SCC iter.                  ...        0 min,  0.044 sec
     gradient                   ...        0 min,  0.013 sec
 * total energy  :  -102.7986899 Eh     change       -0.6707688E-03 Eh
   gradient norm :     0.0050873 Eh/α   predicted    -0.5777038E-03 ( -13.87%)
   displ. norm   :     0.6989214 α      lambda       -0.6782083E-03
   maximum displ.:     0.4438354 α      in ANC's #2, #1, #3, ...

........................................................................
.............................. CYCLE   31 ..............................
........................................................................

 iter      E             dE          RMSdq      gap      omega  full diag
   1   -104.3094168 -0.104309E+03  0.647E-02    1.63       0.0  T
   2   -104.3094164  0.384751E-06  0.383E-02    1.63       1.0  T
   3   -104.3091609  0.255468E-03  0.513E-02    1.64       1.0  T
   4   -104.3093995 -0.238573E-03  0.170E-02    1.63       1.0  T
   5   -104.3094240 -0.245087E-04  0.403E-03    1.63       2.9  T
   6   -104.3094241 -0.993716E-07  0.286E-03    1.63       4.1  T
   7   -104.3094243 -0.164343E-06  0.150E-03    1.63       7.8  T
   8   -104.3094243 -0.379003E-07  0.830E-04    1.63      14.1  T
   9   -104.3094243 -0.222817E-07  0.416E-04    1.63      28.1  T
     SCC iter.                  ...        0 min,  0.043 sec
     gradient                   ...        0 min,  0.012 sec
 * total energy  :  -102.7992886 Eh     change       -0.5986812E-03 Eh
   gradient norm :     0.0052138 Eh/α   predicted    -0.5047556E-03 ( -15.69%)
   displ. norm   :     0.6911519 α      lambda       -0.6267474E-03
   maximum displ.:     0.4498583 α      in ANC's #2, #1, #3, ...

........................................................................
.............................. CYCLE   32 ..............................
........................................................................

 iter      E             dE          RMSdq      gap      omega  full diag
   1   -104.3101617 -0.104310E+03  0.677E-02    1.64       0.0  T
   2   -104.3101282  0.335531E-04  0.486E-02    1.65       1.0  T
   3   -104.3094542  0.674027E-03  0.831E-02    1.63       1.0  T
   4   -104.3101498 -0.695661E-03  0.158E-02    1.65       1.0  T
   5   -104.3101715 -0.216861E-04  0.524E-03    1.64       2.2  T
   6   -104.3101716 -0.107341E-06  0.346E-03    1.64       3.4  T
   7   -104.3101719 -0.262000E-06  0.146E-03    1.64       8.0  T
   8   -104.3101719 -0.390411E-07  0.830E-04    1.64      14.1  T
   9   -104.3101719 -0.507707E-08  0.447E-04    1.64      26.2  T
     SCC iter.                  ...        0 min,  0.043 sec
     gradient                   ...        0 min,  0.012 sec
 * total energy  :  -102.7998530 Eh     change       -0.5644027E-03 Eh
   gradient norm :     0.0045166 Eh/α   predicted    -0.4630744E-03 ( -17.95%)
   displ. norm   :     0.6978427 α      lambda       -0.6207703E-03
   maximum displ.:     0.4636075 α      in ANC's #2, #1, #3, ...

........................................................................
.............................. CYCLE   33 ..............................
........................................................................

 iter      E             dE          RMSdq      gap      omega  full diag
   1   -104.3109308 -0.104311E+03  0.773E-02    1.65       0.0  T
   2   -104.3107174  0.213337E-03  0.736E-02    1.67       1.0  T
   3   -104.3105270  0.190439E-03  0.689E-02    1.65       1.0  T
   4   -104.3109423 -0.415356E-03  0.174E-02    1.66       1.0  T
   5   -104.3109641 -0.217409E-04  0.726E-03    1.66       1.6  T
   6   -104.3109643 -0.210869E-06  0.451E-03    1.66       2.6  T
   7   -104.3109647 -0.367800E-06  0.226E-03    1.66       5.2  T
   8   -104.3109648 -0.992288E-07  0.119E-03    1.66       9.8  T
   9   -104.3109648 -0.166779E-07  0.559E-04    1.66      20.9  T
  10   -104.3109648 -0.882326E-08  0.243E-04    1.66      48.2  T
     SCC iter.                  ...        0 min,  0.047 sec
     gradient                   ...        0 min,  0.013 sec
 * total energy  :  -102.8004199 Eh     change       -0.5669513E-03 Eh
   gradient norm :     0.0043195 Eh/α   predicted    -0.4615383E-03 ( -18.59%)
   displ. norm   :     0.7193079 α      lambda       -0.6372287E-03
   maximum displ.:     0.4844306 α      in ANC's #2, #1, #3, ...

........................................................................
.............................. CYCLE   34 ..............................
........................................................................

 iter      E             dE          RMSdq      gap      omega  full diag
   1   -104.3111974 -0.104311E+03  0.864E-02    1.67       0.0  T
   2   -104.3106750  0.522416E-03  0.979E-02    1.68       1.0  T
   3   -104.3110105 -0.335554E-03  0.600E-02    1.67       1.0  T
   4   -104.3112470 -0.236521E-03  0.160E-02    1.68       1.0  T
   5   -104.3112629 -0.158232E-04  0.765E-03    1.67       1.5  T
   6   -104.3112629 -0.388820E-07  0.487E-03    1.67       2.4  T
   7   -104.3112633 -0.409896E-06  0.232E-03    1.67       5.0  T
   8   -104.3112634 -0.119146E-06  0.120E-03    1.67       9.8  T
   9   -104.3112634 -0.925742E-08  0.505E-04    1.67      23.2  T
  10   -104.3112635 -0.582575E-08  0.289E-04    1.67      40.5  T
     SCC iter.                  ...        0 min,  0.047 sec
     gradient                   ...        0 min,  0.012 sec
 * total energy  :  -102.8010018 Eh     change       -0.5819082E-03 Eh
   gradient norm :     0.0046331 Eh/α   predicted    -0.4834682E-03 ( -16.92%)
   displ. norm   :     0.7185386 α      lambda       -0.6339264E-03
   maximum displ.:     0.4908779 α      in ANC's #2, #1, #3, ...

........................................................................
.............................. CYCLE   35 ..............................
........................................................................

 iter      E             dE          RMSdq      gap      omega  full diag
   1   -104.3117706 -0.104312E+03  0.931E-02    1.68       0.0  T
   2   -104.3109101  0.860460E-03  0.117E-01    1.70       1.0  T
   3   -104.3117038 -0.793690E-03  0.574E-02    1.68       1.0  T
   4   -104.3118525 -0.148674E-03  0.181E-02    1.69       1.0  T
   5   -104.3118737 -0.211988E-04  0.821E-03    1.68       1.4  T
   6   -104.3118735  0.150996E-06  0.547E-03    1.68       2.1  T
   7   -104.3118742 -0.677497E-06  0.275E-03    1.69       4.3  T
   8   -104.3118744 -0.136395E-06  0.139E-03    1.69       8.4  T
   9   -104.3118744 -0.186355E-07  0.651E-04    1.69      18.0  T
  10   -104.3118744 -0.923721E-08  0.378E-04    1.69      31.0  T
     SCC iter.                  ...        0 min,  0.051 sec
     gradient                   ...        0 min,  0.012 sec
 * total energy  :  -102.8015683 Eh     change       -0.5664599E-03 Eh
   gradient norm :     0.0051498 Eh/α   predicted    -0.4806117E-03 ( -15.16%)
   displ. norm   :     0.7130865 α      lambda       -0.6068529E-03
   maximum displ.:     0.4918594 α      in ANC's #2, #1, #3, ...

........................................................................
.............................. CYCLE   36 ..............................
........................................................................

 iter      E             dE          RMSdq      gap      omega  full diag
   1   -104.3117009 -0.104312E+03  0.936E-02    1.68       0.0  T
   2   -104.3106071  0.109374E-02  0.126E-01    1.70       1.0  T
   3   -104.3116960 -0.108883E-02  0.544E-02    1.69       1.0  T
   4   -104.3118165 -0.120543E-03  0.148E-02    1.69       1.0  T
   5   -104.3118287 -0.122007E-04  0.656E-03    1.69       1.8  T
   6   -104.3118286  0.831204E-07  0.497E-03    1.69       2.4  T
   7   -104.3118291 -0.436151E-06  0.236E-03    1.69       5.0  T
   8   -104.3118292 -0.122109E-06  0.135E-03    1.69       8.7  T
   9   -104.3118292 -0.744237E-09  0.825E-04    1.69      14.2  T
  10   -104.3118292 -0.188572E-07  0.476E-04    1.69      24.6  T
     SCC iter.                  ...        0 min,  0.047 sec
     gradient                   ...        0 min,  0.013 sec
 * total energy  :  -102.8020876 Eh     change       -0.5193015E-03 Eh
   gradient norm :     0.0063130 Eh/α   predicted    -0.4577171E-03 ( -11.86%)
   displ. norm   :     0.6731985 α      lambda       -0.5676335E-03
   maximum displ.:     0.4797738 α      in ANC's #2, #1, #11, ...

........................................................................
.............................. CYCLE   37 ..............................
........................................................................

 iter      E             dE          RMSdq      gap      omega  full diag
   1   -104.3157782 -0.104316E+03  0.954E-02    1.69       0.0  T
   2   -104.3143408  0.143736E-02  0.138E-01    1.71       1.0  T
   3   -104.3158458 -0.150504E-02  0.531E-02    1.69       1.0  T
   4   -104.3159272 -0.814171E-04  0.163E-02    1.70       1.0  T
   5   -104.3159429 -0.156440E-04  0.722E-03    1.69       1.6  T
   6   -104.3159427  0.195615E-06  0.533E-03    1.69       2.2  T
   7   -104.3159434 -0.748570E-06  0.257E-03    1.69       4.6  T
   8   -104.3159436 -0.114230E-06  0.143E-03    1.69       8.2  T
   9   -104.3159436 -0.653543E-09  0.856E-04    1.69      13.7  T
  10   -104.3159436 -0.214014E-07  0.520E-04    1.69      22.5  T
     SCC iter.                  ...        0 min,  0.046 sec
     gradient                   ...        0 min,  0.012 sec
 * total energy  :  -102.8025284 Eh     change       -0.4408475E-03 Eh
   gradient norm :     0.0059355 Eh/α   predicted    -0.4124463E-03 (  -6.44%)
   displ. norm   :     0.6882974 α      lambda       -0.5297291E-03
   maximum displ.:     0.4813361 α      in ANC's #2, #1, #3, ...

........................................................................
.............................. CYCLE   38 ..............................
........................................................................

 iter      E             dE          RMSdq      gap      omega  full diag
   1   -104.3113162 -0.104311E+03  0.841E-02    1.69       0.0  T
   2   -104.3106349  0.681294E-03  0.101E-01    1.70       1.0  T
   3   -104.3111456 -0.510679E-03  0.579E-02    1.68       1.0  T
   4   -104.3113888 -0.243247E-03  0.121E-02    1.69       1.0  T
   5   -104.3113977 -0.884193E-05  0.434E-03    1.69       2.7  T
   6   -104.3113977 -0.325642E-07  0.332E-03    1.69       3.5  T
   7   -104.3113980 -0.264405E-06  0.178E-03    1.69       6.6  T
   8   -104.3113980 -0.303730E-07  0.978E-04    1.69      12.0  T
   9   -104.3113980 -0.646671E-08  0.647E-04    1.69      18.1  T
     SCC iter.                  ...        0 min,  0.043 sec
     gradient                   ...        0 min,  0.013 sec
 * total energy  :  -102.8028881 Eh     change       -0.3597010E-03 Eh
   gradient norm :     0.0070818 Eh/α   predicted    -0.3903469E-03 (   8.52%)
   displ. norm   :     0.5515412 α      lambda       -0.4334297E-03
   maximum displ.:     0.3998586 α      in ANC's #2, #1, #3, ...

........................................................................
.............................. CYCLE   39 ..............................
........................................................................

 iter      E             dE          RMSdq      gap      omega  full diag
   1   -104.3154461 -0.104315E+03  0.725E-02    1.68       0.0  T
   2   -104.3147326  0.713553E-03  0.966E-02    1.70       1.0  T
   3   -104.3154032 -0.670591E-03  0.464E-02    1.68       1.0  T
   4   -104.3155325 -0.129276E-03  0.979E-03    1.69       1.2  T
   5   -104.3155374 -0.490064E-05  0.358E-03    1.69       3.3  T
   6   -104.3155375 -0.151511E-06  0.270E-03    1.69       4.3  T
   7   -104.3155376 -0.129406E-06  0.155E-03    1.69       7.6  T
   8   -104.3155377 -0.697301E-07  0.765E-04    1.69      15.3  T
   9   -104.3155377 -0.851198E-08  0.472E-04    1.69      24.8  T
     SCC iter.                  ...        0 min,  0.043 sec
     gradient                   ...        0 min,  0.014 sec
 * total energy  :  -102.8032205 Eh     change       -0.3323942E-03 Eh
   gradient norm :     0.0072059 Eh/α   predicted    -0.2826399E-03 ( -14.97%)
   displ. norm   :     0.5741998 α      lambda       -0.3975371E-03
   maximum displ.:     0.4185248 α      in ANC's #2, #1, #3, ...

........................................................................
.............................. CYCLE   40 ..............................
........................................................................

 iter      E             dE          RMSdq      gap      omega  full diag
   1   -104.3174244 -0.104317E+03  0.620E-02    1.68       0.0  T
   2   -104.3170735  0.350823E-03  0.709E-02    1.69       1.0  T
   3   -104.3172737 -0.200148E-03  0.485E-02    1.68       1.0  T
   4   -104.3174634 -0.189751E-03  0.835E-03    1.69       1.4  T
   5   -104.3174670 -0.353537E-05  0.370E-03    1.69       3.2  T
   6   -104.3174674 -0.396884E-06  0.233E-03    1.69       5.0  T
   7   -104.3174675 -0.133606E-06  0.119E-03    1.69       9.8  T
   8   -104.3174675 -0.269521E-07  0.633E-04    1.69      18.5  T
   9   -104.3174675 -0.116032E-07  0.283E-04    1.69      41.4  T
     SCC iter.                  ...        0 min,  0.044 sec
     gradient                   ...        0 min,  0.012 sec
 * total energy  :  -102.8035350 Eh     change       -0.3145056E-03 Eh
   gradient norm :     0.0042955 Eh/α   predicted    -0.2643053E-03 ( -15.96%)
   displ. norm   :     0.6425895 α      lambda       -0.3728227E-03
   maximum displ.:     0.4439125 α      in ANC's #2, #1, #3, ...

........................................................................
.............................. CYCLE   41 ..............................
........................................................................

 iter      E             dE          RMSdq      gap      omega  full diag
   1   -104.3166818 -0.104317E+03  0.670E-02    1.68       0.0  T
   2   -104.3165897  0.920882E-04  0.510E-02    1.69       1.0  T
   3   -104.3159662  0.623541E-03  0.822E-02    1.67       1.0  T
   4   -104.3166934 -0.727253E-03  0.937E-03    1.68       1.2  T
   5   -104.3166986 -0.520788E-05  0.340E-03    1.68       3.4  T
   6   -104.3166989 -0.303576E-06  0.205E-03    1.68       5.7  T
   7   -104.3166989 -0.668864E-08  0.135E-03    1.68       8.7  T
   8   -104.3166990 -0.312629E-07  0.802E-04    1.68      14.6  T
   9   -104.3166990 -0.198952E-07  0.392E-04    1.68      29.9  T
     SCC iter.                  ...        0 min,  0.046 sec
     gradient                   ...        0 min,  0.012 sec
 * total energy  :  -102.8038164 Eh     change       -0.2813788E-03 Eh
   gradient norm :     0.0055454 Eh/α   predicted    -0.2633858E-03 (  -6.39%)
   displ. norm   :     0.5887549 α      lambda       -0.4202222E-03
   maximum displ.:     0.3817829 α      in ANC's #2, #1, #5, ...

........................................................................
.............................. CYCLE   42 ..............................
........................................................................

 iter      E             dE          RMSdq      gap      omega  full diag
   1   -104.3208044 -0.104321E+03  0.678E-02    1.68       0.0  T
   2   -104.3208090 -0.462672E-05  0.397E-02    1.68       1.0  T
   3   -104.3207771  0.319520E-04  0.189E-02    1.68       1.0  T
   4   -104.3207602  0.168113E-04  0.214E-02    1.68       1.0  T
   5   -104.3208103 -0.500989E-04  0.408E-03    1.68       2.9  T
   6   -104.3208110 -0.681001E-06  0.233E-03    1.68       5.0  T
   7   -104.3208111 -0.470339E-07  0.145E-03    1.68       8.1  T
   8   -104.3208111 -0.413430E-07  0.881E-04    1.68      13.3  T
   9   -104.3208111 -0.681860E-08  0.548E-04    1.68      21.4  T
     SCC iter.                  ...        0 min,  0.043 sec
     gradient                   ...        0 min,  0.012 sec
 * total energy  :  -102.8040662 Eh     change       -0.2497888E-03 Eh
   gradient norm :     0.0074989 Eh/α   predicted    -0.2829444E-03 (  13.27%)
   displ. norm   :     0.5793132 α      lambda       -0.3374797E-03
   maximum displ.:     0.3900316 α      in ANC's #2, #1, #5, ...
 * RMSD in coord.:     1.5291218 α      energy gain  -0.1313298E-01 Eh

generating ANC from exact Hessian ...
Using Lindh-Hessian (1995)
 Shifting diagonal of input Hessian by   1.010374421217600E-002
 Lowest  eigenvalues of input Hessian
    0.010000    0.000000    0.000000    0.000000    0.000000    0.000000
    0.000000    0.010265    0.010375    0.010531    0.010665    0.010746
    0.011032    0.011246    0.011377    0.011540    0.011683    0.011819
 Highest eigenvalues
    2.022362    2.038846    2.085741    2.351068    2.410811    2.744236
 

........................................................................
.............................. CYCLE   43 ..............................
........................................................................

 iter      E             dE          RMSdq      gap      omega  full diag
   1   -104.3143210 -0.104314E+03  0.529E-02    1.68       0.0  T
   2   -104.3143136  0.737676E-05  0.337E-02    1.68       1.0  T
   3   -104.3139195  0.394036E-03  0.600E-02    1.67       1.0  T
   4   -104.3143154 -0.395905E-03  0.118E-02    1.68       1.0  T
   5   -104.3143277 -0.122166E-04  0.292E-03    1.68       4.0  T
   6   -104.3143279 -0.250259E-06  0.169E-03    1.68       6.9  T
   7   -104.3143279  0.620197E-08  0.113E-03    1.68      10.4  T
   8   -104.3143279 -0.279487E-07  0.590E-04    1.68      19.8  T
   9   -104.3143279 -0.407164E-08  0.352E-04    1.68      33.3  T
     SCC iter.                  ...        0 min,  0.046 sec
     gradient                   ...        0 min,  0.013 sec
 * total energy  :  -102.8043186 Eh     change       -0.2523626E-03 Eh
   gradient norm :     0.0067398 Eh/α   predicted     0.0000000E+00 (-100.00%)
   displ. norm   :     0.1025785 α      lambda       -0.2266800E-03
   maximum displ.:     0.0498686 α      in ANC's #5, #9, #3, ...

........................................................................
.............................. CYCLE   44 ..............................
........................................................................

 iter      E             dE          RMSdq      gap      omega  full diag
   1   -104.3178872 -0.104318E+03  0.254E-02    1.68       0.0  T
   2   -104.3178154  0.718861E-04  0.310E-02    1.67       1.0  T
   3   -104.3178672 -0.518201E-04  0.198E-02    1.68       1.0  T
   4   -104.3178959 -0.286833E-04  0.434E-03    1.68       2.7  T
   5   -104.3178965 -0.602946E-06  0.247E-03    1.68       4.7  T
   6   -104.3178967 -0.231182E-06  0.139E-03    1.68       8.4  T
   7   -104.3178967 -0.320766E-07  0.727E-04    1.68      16.1  T
   8   -104.3178967 -0.920731E-08  0.277E-04    1.68      42.3  T
     SCC iter.                  ...        0 min,  0.040 sec
     gradient                   ...        0 min,  0.012 sec
 * total energy  :  -102.8044845 Eh     change       -0.1659390E-03 Eh
   gradient norm :     0.0048129 Eh/α   predicted    -0.1150561E-03 ( -30.66%)
   displ. norm   :     0.3035992 α      lambda       -0.4559365E-03
   maximum displ.:     0.1500677 α      in ANC's #5, #9, #3, ...

........................................................................
.............................. CYCLE   45 ..............................
........................................................................

 iter      E             dE          RMSdq      gap      omega  full diag
   1   -104.3238558 -0.104324E+03  0.675E-02    1.67       0.0  T
   2   -104.3234564  0.399355E-03  0.745E-02    1.69       1.0  T
   3   -104.3236177 -0.161329E-03  0.595E-02    1.67       1.0  T
   4   -104.3238983 -0.280579E-03  0.145E-02    1.67       1.0  T
   5   -104.3239103 -0.120099E-04  0.676E-03    1.68       1.7  T
   6   -104.3239105 -0.138971E-06  0.490E-03    1.68       2.4  T
   7   -104.3239109 -0.395154E-06  0.275E-03    1.68       4.3  T
   8   -104.3239110 -0.125102E-06  0.128E-03    1.68       9.2  T
   9   -104.3239110 -0.326893E-07  0.501E-04    1.68      23.3  T
  10   -104.3239110 -0.284835E-08  0.323E-04    1.68      36.2  T
     SCC iter.                  ...        0 min,  0.050 sec
     gradient                   ...        0 min,  0.012 sec
 * total energy  :  -102.8046239 Eh     change       -0.1393604E-03 Eh
   gradient norm :     0.0157219 Eh/α   predicted    -0.2489814E-03 (  78.66%)
   displ. norm   :     0.2065325 α      lambda       -0.4231328E-03
   maximum displ.:     0.1060999 α      in ANC's #5, #9, #3, ...

........................................................................
.............................. CYCLE   46 ..............................
........................................................................

 iter      E             dE          RMSdq      gap      omega  full diag
   1   -104.3231137 -0.104323E+03  0.496E-02    1.67       0.0  T
   2   -104.3227448  0.368924E-03  0.663E-02    1.66       1.0  T
   3   -104.3230789 -0.334113E-03  0.361E-02    1.67       1.0  T
   4   -104.3231565 -0.775501E-04  0.930E-03    1.67       1.3  T
   5   -104.3231602 -0.368092E-05  0.533E-03    1.67       2.2  T
   6   -104.3231606 -0.458319E-06  0.298E-03    1.67       3.9  T
   7   -104.3231607 -0.113241E-06  0.131E-03    1.67       8.9  T
   8   -104.3231608 -0.282019E-07  0.581E-04    1.67      20.2  T
   9   -104.3231608 -0.464009E-08  0.376E-04    1.67      31.1  T
     SCC iter.                  ...        0 min,  0.044 sec
     gradient                   ...        0 min,  0.013 sec
 * total energy  :  -102.8048329 Eh     change       -0.2090579E-03 Eh
   gradient norm :     0.0090334 Eh/α   predicted    -0.2206000E-03 (   5.52%)
   displ. norm   :     0.1694966 α      lambda       -0.2385516E-03
   maximum displ.:     0.0900199 α      in ANC's #5, #9, #3, ...

........................................................................
.............................. CYCLE   47 ..............................
........................................................................

 iter      E             dE          RMSdq      gap      omega  full diag
   1   -104.3197695 -0.104320E+03  0.390E-02    1.67       0.0  T
   2   -104.3197675  0.205908E-05  0.239E-02    1.67       1.0  T
   3   -104.3195983  0.169211E-03  0.397E-02    1.68       1.0  T
   4   -104.3197662 -0.167918E-03  0.868E-03    1.67       1.3  T
   5   -104.3197727 -0.648361E-05  0.295E-03    1.67       4.0  T
   6   -104.3197728 -0.937953E-07  0.191E-03    1.67       6.1  T
   7   -104.3197728 -0.117078E-07  0.865E-04    1.67      13.5  T
   8   -104.3197728 -0.202798E-07  0.424E-04    1.67      27.6  T
     SCC iter.                  ...        0 min,  0.039 sec
     gradient                   ...        0 min,  0.013 sec
 * total energy  :  -102.8050244 Eh     change       -0.1914410E-03 Eh
   gradient norm :     0.0068934 Eh/α   predicted    -0.1227031E-03 ( -35.91%)
   displ. norm   :     0.4098481 α      lambda       -0.4019918E-03
[...]
        87        2.0000           -0.4023804             -10.9493
        88        2.0000           -0.4015330             -10.9263
        89        2.0000           -0.3938555             -10.7174
        90        2.0000           -0.3809467             -10.3661
        91        2.0000           -0.3759408             -10.2299
        92        2.0000           -0.3683274             -10.0227
        93        2.0000           -0.3661409              -9.9632
        94        2.0000           -0.3605036              -9.8098
        95        1.9972           -0.3414202              -9.2905
        96        1.0028           -0.3302456              -8.9864 (HOMO)
        97                         -0.2691049              -7.3227 (LUMO)
        98                         -0.2607921              -7.0965
        99                         -0.2416943              -6.5768
       100                         -0.2232688              -6.0755
       101                         -0.2212996              -6.0219
       102                         -0.2185055              -5.9458
       103                         -0.2051923              -5.5836
       104                         -0.1760206              -4.7898
       105                         -0.1646143              -4.4794
       106                         -0.1296217              -3.5272
       107                         -0.0914936              -2.4897
       ...                                ...                  ...
       188                          3.2925134              89.5939
      -------------------------------------------------------------
                  HL-Gap            0.0611407 Eh            1.6637 eV
             Fermi-level           -0.3177541 Eh           -8.6465 eV

     #   Z          covCN         q      C6AA      α(0)
     1   6 C        3.759    -0.120    22.857     6.816
     2   6 C        2.926     0.094    25.909     8.347
     3   6 C        2.923    -0.056    29.390     8.890
     4   6 C        2.921    -0.017    28.440     8.745
     5   6 C        2.918    -0.053    29.306     8.877
     6   6 C        3.186     0.094    25.482     8.237
     7   7 N        2.682    -0.052    22.260     7.007
     8  28 Ni       3.854    -0.248   252.331    31.058
     9   8 O        1.597    -0.311    19.225     5.917
    10   6 C        2.759     0.379    20.584     7.430
    11   8 O        0.856    -0.439    22.479     6.357
    12   6 C        3.839     0.032    20.005     6.363
    13   6 C        2.984     0.014    27.687     8.631
    14   6 C        2.923    -0.033    28.825     8.804
    15   6 C        2.920    -0.027    28.686     8.783
    16   6 C        2.921    -0.033    28.821     8.804
    17   6 C        2.919    -0.030    28.761     8.794
    18   6 C        2.924    -0.034    28.855     8.809
    19   7 N        2.632    -0.132    23.879     7.257
    20   6 C        2.916     0.083    26.147     8.385
    21   6 C        2.923    -0.044    29.092     8.845
    22   6 C        2.916    -0.032    28.805     8.801
    23   6 C        2.919    -0.038    28.950     8.823
    24   6 C        2.916    -0.031    28.765     8.795
    25   6 C        2.920    -0.052    29.302     8.877
    26  15 P        5.065     0.025   159.127    22.660
    27   6 C        3.846     0.046    19.768     6.324
    28   6 C        3.836    -0.108    22.541     6.755
    29   6 C        3.817    -0.111    22.605     6.767
    30   6 C        3.815    -0.110    22.597     6.766
    31   6 C        3.837     0.023    20.155     6.387
    32   6 C        3.774    -0.113    22.686     6.787
    33   6 C        3.875    -0.105    22.446     6.736
    34   6 C        3.785    -0.104    22.497     6.756
    35   6 C        4.019    -0.090    22.129     6.683
    36   1 H        0.925     0.061     2.192     2.315
    37   1 H        0.925     0.059     2.208     2.324
    38   1 H        0.925     0.085     1.924     2.169
    39   1 H        0.926     0.043     2.403     2.424
    40   1 H        0.926     0.042     2.421     2.433
    41   1 H        0.926     0.041     2.441     2.443
    42   1 H        0.923     0.033     2.544     2.494
    43   1 H        0.926     0.036     2.498     2.471
    44   1 H        0.926     0.034     2.532     2.488
    45   1 H        0.926     0.031     2.576     2.510
    46   1 H        0.926     0.030     2.584     2.514
    47   1 H        0.924     0.087     1.907     2.160
    48   1 H        0.926     0.037     2.486     2.466
    49   1 H        0.926     0.025     2.665     2.553
    50   1 H        0.926     0.026     2.638     2.540
    51   1 H        0.926     0.028     2.617     2.530
    52   1 H        0.926     0.032     2.553     2.498
    53   1 H        0.977     0.007     2.930     2.675
    54   1 H        0.925     0.040     2.445     2.445
    55   1 H        0.925     0.044     2.395     2.420
    56   1 H        0.925     0.043     2.412     2.429
    57   1 H        0.925     0.073     2.055     2.242
    58   1 H        0.925     0.040     2.444     2.445
    59   1 H        0.925     0.038     2.478     2.462
    60   1 H        0.925     0.038     2.471     2.458
    61   1 H        0.925     0.039     2.469     2.457
    62   1 H        0.925     0.077     2.008     2.216
    63   1 H        0.925     0.038     2.469     2.457
    64   1 H        0.925     0.042     2.418     2.432
    65   1 H        0.925     0.078     2.002     2.212
    66   1 H        0.925     0.068     2.103     2.268
    67   1 H        0.924     0.034     2.525     2.485
    68   1 H        0.925     0.040     2.454     2.450
    69   1 H        0.925     0.039     2.466     2.456
    70   1 H        0.925     0.036     2.501     2.473
    71   1 H        0.924     0.044     2.401     2.423
    72   1 H        0.925     0.034     2.537     2.491
    73   1 H        0.926     0.111     1.686     2.030

 Mol. C6AA /au·bohr⁶  :      63264.659028
 Mol. C8AA /au·bohr⁸  :    1720957.053237
 Mol. α(0) /au        :        400.832076


Wiberg/Mayer (AO) data.
largest (>0.10) Wiberg bond orders for each atom

 ---------------------------------------------------------------------------
     #   Z sym  total        # sym  WBO       # sym  WBO       # sym  WBO
 ---------------------------------------------------------------------------
     1   6 C    3.991 --     2 C    1.022    37 H    0.968    36 H    0.965
                            38 H    0.950
     2   6 C    3.975 --     3 C    1.414     7 N    1.341     1 C    1.022
                             5 C    0.102
     3   6 C    3.980 --     2 C    1.414     4 C    1.404    39 H    0.968
     4   6 C    3.985 --     5 C    1.468     3 C    1.404    40 H    0.969
     5   6 C    3.985 --     4 C    1.468     6 C    1.349    41 H    0.968
                             2 C    0.102
     6   6 C    3.972 --     5 C    1.349     7 N    1.262    35 C    1.119
     7   7 N    3.558 --     2 C    1.341     6 C    1.262     8 Ni   0.586
     8  28 Ni   3.680 --    19 N    0.724    26 P    0.717     9 O    0.612
                             7 N    0.586    35 C    0.179
     9   8 O    2.367 --    10 C    1.331     8 Ni   0.612    11 O    0.190
    10   6 C    3.932 --    11 O    1.666     9 O    1.331    12 C    0.804
    11   8 O    2.016 --    10 C    1.666     9 O    0.190
    12   6 C    3.975 --    19 N    1.030    13 C    0.963    42 H    0.952
                            10 C    0.804
    13   6 C    3.975 --    18 C    1.398    14 C    1.394    12 C    0.963
                            16 C    0.105
    14   6 C    3.987 --    15 C    1.448    13 C    1.394    43 H    0.968
                            17 C    0.109
    15   6 C    3.989 --    14 C    1.448    16 C    1.436    44 H    0.970
                            18 C    0.108
    16   6 C    3.985 --    15 C    1.436    17 C    1.433    45 H    0.971
                            13 C    0.105
    17   6 C    3.992 --    18 C    1.447    16 C    1.433    46 H    0.970
                            14 C    0.109
    18   6 C    3.987 --    17 C    1.447    13 C    1.398    47 H    0.877
                            15 C    0.108
    19   7 N    3.423 --    20 C    1.222    12 C    1.030     8 Ni   0.724
    20   6 C    3.978 --    25 C    1.289    21 C    1.288    19 N    1.222
    21   6 C    3.972 --    22 C    1.489    20 C    1.288    48 H    0.955
    22   6 C    3.991 --    21 C    1.489    23 C    1.405    49 H    0.971
    23   6 C    3.934 --    24 C    1.414    22 C    1.405    50 H    0.972
    24   6 C    3.989 --    25 C    1.480    23 C    1.414    51 H    0.970
    25   6 C    3.962 --    24 C    1.480    20 C    1.289    52 H    0.965
    26  15 P    4.543 --    27 C    0.934    53 H    0.917    31 C    0.787
                             8 Ni   0.717    35 C    0.564
    27   6 C    3.986 --    29 C    0.990    28 C    0.988    30 C    0.988
                            26 P    0.934
    28   6 C    3.994 --    27 C    0.988    56 H    0.980    54 H    0.977
                            55 H    0.977
    29   6 C    3.991 --    27 C    0.990    59 H    0.980    57 H    0.971
                            58 H    0.970
    30   6 C    3.992 --    27 C    0.988    61 H    0.980    60 H    0.979
                            62 H    0.961
    31   6 C    3.951 --    32 C    0.998    34 C    0.995    33 C    0.990
                            26 P    0.787
    32   6 C    3.993 --    31 C    0.998    64 H    0.981    63 H    0.979
                            65 H    0.949
    33   6 C    3.994 --    31 C    0.990    68 H    0.978    67 H    0.970
                            66 H    0.941
    34   6 C    3.990 --    31 C    0.995    70 H    0.974    71 H    0.974
                            69 H    0.974
    35   6 C    3.927 --     6 C    1.119    72 H    0.956    73 H    0.864
                            26 P    0.564     8 Ni   0.179
    36   1 H    0.996 --     1 C    0.965
    37   1 H    0.996 --     1 C    0.968
    38   1 H    0.992 --     1 C    0.950
    39   1 H    0.997 --     3 C    0.968
    40   1 H    0.996 --     4 C    0.969
    41   1 H    0.997 --     5 C    0.968
    42   1 H    0.996 --    12 C    0.952
    43   1 H    0.998 --    14 C    0.968
    44   1 H    0.997 --    15 C    0.970
    45   1 H    0.998 --    16 C    0.971
    46   1 H    0.999 --    17 C    0.970
    47   1 H    0.992 --    18 C    0.877
    48   1 H    0.998 --    21 C    0.955
    49   1 H    0.998 --    22 C    0.971
    50   1 H    0.999 --    23 C    0.972
    51   1 H    0.998 --    24 C    0.970
    52   1 H    0.999 --    25 C    0.965
    53   1 H    0.996 --    26 P    0.917
    54   1 H    0.998 --    28 C    0.977
    55   1 H    0.998 --    28 C    0.977
    56   1 H    0.996 --    28 C    0.980
    57   1 H    0.995 --    29 C    0.971
    58   1 H    0.998 --    29 C    0.970
    59   1 H    0.998 --    29 C    0.980
    60   1 H    0.998 --    30 C    0.979
    61   1 H    0.998 --    30 C    0.980
    62   1 H    0.994 --    30 C    0.961
    63   1 H    0.996 --    32 C    0.979
    64   1 H    0.998 --    32 C    0.981
    65   1 H    0.993 --    32 C    0.949
    66   1 H    0.995 --    33 C    0.941
    67   1 H    0.999 --    33 C    0.970
    68   1 H    0.997 --    33 C    0.978
    69   1 H    0.998 --    34 C    0.974
    70   1 H    0.998 --    34 C    0.974
    71   1 H    0.989 --    34 C    0.974
    72   1 H    0.995 --    35 C    0.956
    73   1 H    0.987 --    35 C    0.864
 ---------------------------------------------------------------------------

Topologies differ in total number of bonds
Writing topology from bond orders to xtbtopo.mol

molecular dipole:
                 x           y           z       tot (Debye)
 q only:        1.317       0.454       2.672
   full:        1.835       0.322       2.501       7.925
molecular quadrupole (traceless):
                xx          xy          yy          xz          yz          zz
 q only:       22.261      16.191      40.360     -21.717      17.733     -62.621
  q+dip:       21.924      18.455      38.345     -30.106      13.883     -60.269
   full:       22.838      19.595      36.252     -30.251      16.346     -59.090

           -------------------------------------------------
          |                Geometry Summary                 |
           -------------------------------------------------

      molecular mass/u    :      536.2924150
   center of mass at/Å    :        1.0114573       4.1549177      -4.8115972
  moments of inertia/u·Å² :        0.3522208E+04   0.4492295E+04   0.5868032E+04
rotational constants/cm⁻¹ :        0.4786097E-02   0.3752566E-02   0.2872791E-02

 * 72 selected distances

     #   Z          #   Z                                           value/Å
     2   6 C        3   6 C                                       1.3866355
     3   6 C        4   6 C                                       1.3880402
     4   6 C        5   6 C                                       1.3775441
     5   6 C        6   6 C                                       1.3948981
     2   6 C        7   7 N                                       1.3384407
     6   6 C        7   7 N                                       1.3523483
     7   7 N        8  28 Ni                                      1.8618477
     8  28 Ni       9   8 O                                       1.8166749
     9   8 O       10   6 C                                       1.2674254
    10   6 C       11   8 O                                       1.2085787
    13   6 C       14   6 C                                       1.3896280
    14   6 C       15   6 C                                       1.3832720
    15   6 C       16   6 C                                       1.3850490
    16   6 C       17   6 C                                       1.3849704
    13   6 C       18   6 C                                       1.3880457
    17   6 C       18   6 C                                       1.3813462
     8  28 Ni      19   7 N                                       1.8683835
    12   6 C       19   7 N                                       1.4387232
    19   7 N       20   6 C                                       1.3636456
    20   6 C       21   6 C                                       1.4090177
    21   6 C       22   6 C                                       1.3756234
    22   6 C       23   6 C                                       1.3881491
    23   6 C       24   6 C                                       1.3868718
    20   6 C       25   6 C                                       1.4098316
    24   6 C       25   6 C                                       1.3779824
     8  28 Ni      26  15 P                                       2.1999348 (max)
    26  15 P       27   6 C                                       1.8948589
    27   6 C       28   6 C                                       1.5284039
    27   6 C       29   6 C                                       1.5274595
    27   6 C       30   6 C                                       1.5324073
    31   6 C       32   6 C                                       1.5251054
    31   6 C       33   6 C                                       1.5293975
    31   6 C       34   6 C                                       1.5243631
     6   6 C       35   6 C                                       1.4479151
     1   6 C       36   1 H                                       1.0895262
     1   6 C       37   1 H                                       1.0884666
     1   6 C       38   1 H                                       1.0862113
     3   6 C       39   1 H                                       1.0782221 (min)
     4   6 C       40   1 H                                       1.0793500
     5   6 C       41   1 H                                       1.0788388
    12   6 C       42   1 H                                       1.0983496
    14   6 C       43   1 H                                       1.0802936
    15   6 C       44   1 H                                       1.0801867
    16   6 C       45   1 H                                       1.0799195
    17   6 C       46   1 H                                       1.0803237
    18   6 C       47   1 H                                       1.0914649
    21   6 C       48   1 H                                       1.0805513
    22   6 C       49   1 H                                       1.0808246
    23   6 C       50   1 H                                       1.0794378
    24   6 C       51   1 H                                       1.0808039
    25   6 C       52   1 H                                       1.0795007
    26  15 P       53   1 H                                       1.4014953
    28   6 C       54   1 H                                       1.0889363
    28   6 C       55   1 H                                       1.0864069
    28   6 C       56   1 H                                       1.0895405
    29   6 C       57   1 H                                       1.0869741
    29   6 C       58   1 H                                       1.0839411
    29   6 C       59   1 H                                       1.0897659
    30   6 C       60   1 H                                       1.0857782
    30   6 C       61   1 H                                       1.0894793
    30   6 C       62   1 H                                       1.0875519
    32   6 C       63   1 H                                       1.0892147
    32   6 C       64   1 H                                       1.0854932
    32   6 C       65   1 H                                       1.0889625
    33   6 C       66   1 H                                       1.0893467
    33   6 C       67   1 H                                       1.0916955
    33   6 C       68   1 H                                       1.0894098
    34   6 C       69   1 H                                       1.0861037
    34   6 C       70   1 H                                       1.0900067
    34   6 C       71   1 H                                       1.0902555
    35   6 C       72   1 H                                       1.0892622
    35   6 C       73   1 H                                       1.0993492

 * 9 distinct bonds (by element types)

   Z      Z             #   av. dist./Å        max./Å        min./Å
   1 H    6 C          37     1.0862093     1.0993492     1.0782221
   6 C    6 C          23     1.4270416     1.5324073     1.3756234
   6 C    7 N           4     1.3732895     1.4387232     1.3384407
   6 C    8 O           2     1.2380021     1.2674254     1.2085787
   1 H   15 P           1     1.4014953     1.4014953     1.4014953
   6 C   15 P           1     1.8948589     1.8948589     1.8948589
   7 N   28 Ni          2     1.8651156     1.8683835     1.8618477
   8 O   28 Ni          1     1.8166749     1.8166749     1.8166749
  15 P   28 Ni          1     2.1999348     2.1999348     2.1999348


optimized geometry written to: xtbopt.xyz


           -------------------------------------------------
          | TOTAL ENERGY             -102.807513942724 Eh   |
          | GRADIENT NORM               0.000148051698 Eh/α |
          | HOMO-LUMO GAP               1.663723046917 eV   |
           -------------------------------------------------

------------------------------------------------------------------------
 * finished run on 2026/01/22 at 09:36:08.398     
------------------------------------------------------------------------
 total:
 * wall-time:     0 d,  0 h,  0 min,  6.320 sec
 *  cpu-time:     0 d,  0 h,  0 min, 50.219 sec
 * ratio c/w:     7.946 speedup
 SCF:
 * wall-time:     0 d,  0 h,  0 min,  0.140 sec
 *  cpu-time:     0 d,  0 h,  0 min,  1.106 sec
 * ratio c/w:     7.919 speedup
 ANC optimizer:
 * wall-time:     0 d,  0 h,  0 min,  6.161 sec
 *  cpu-time:     0 d,  0 h,  0 min, 48.981 sec
 * ratio c/w:     7.950 speedup

