73
 energy: -12.470981505359 gnorm: 0.009431143806 xtb: 6.7.1 (edcfbbe)
C            3.29334943014065        5.94270769589864       -3.21725525767283
C            3.54192841485226        4.47782247159527       -3.20607495357192
C            4.72884571717222        4.01300724399040       -2.67675541528800
C            4.95623929831167        2.66327582451254       -2.56972109784263
C            3.95810253158889        1.79870102104936       -2.94654370155322
C            2.76953798473271        2.29995053572996       -3.44447701529253
N            2.56986074704405        3.63694657614714       -3.67157431745348
Ni           0.82019449451674        3.67285889124819       -4.66292390121181
O           -0.94759488604508        3.66500381271597       -5.57747737266613
C           -0.62070797178286        3.71015154121866       -6.82163841050826
O           -1.03113464129046        2.99617216190816       -7.73326370274240
C            0.37872586456061        4.78823219420035       -7.17845789806749
C           -0.32541679842878        6.09932007130401       -7.38357529513420
C           -0.87760475105999        6.39077572872962       -8.61931155939121
C           -1.54064350148395        7.58102373782277       -8.82281190630398
C           -1.66439216695931        8.48441394091927       -7.78927211742389
C           -1.13570146317651        8.19258911623468       -6.54951953986269
C           -0.47416748361569        6.99991663625886       -6.34598819510853
N            1.42882641322377        4.82655359950493       -6.19495207653290
C            2.64040088376214        5.38311864030914       -6.55777327464324
C            3.85247106420916        4.84027766989767       -6.10003457629563
C            5.05929194215206        5.33497711302080       -6.52248768255493
C            5.10774002033256        6.38999760687778       -7.41579544882447
C            3.93380509314117        6.94561097638728       -7.88825069799580
C            2.72277737450385        6.44838488376797       -7.47754363681948
P            0.08366392101806        2.26734337013862       -2.98710530247126
C           -1.55857269266626        1.45188209472936       -3.50780473710231
C           -1.91755680978708        0.42458045764470       -2.43435132171245
C           -2.68002947623439        2.48359741513238       -3.65790678669368
C           -1.30696049232728        0.74750373955602       -4.83887267824720
C            0.02888084843446        3.59762132635006       -1.57604798895567
C           -0.23208496078845        4.98641710552159       -2.14777435140877
C            1.36558027713821        3.54725870055508       -0.83662954729725
C           -1.07065091279540        3.22808007647098       -0.57632626879928
C            1.62042464402183        1.39242937785085       -3.69363610317682
H            2.99033705918762        6.29746985294952       -2.23100090434986
H            4.18304195396414        6.50147012398630       -3.50976317937279
H            2.49714741949120        6.19505935565182       -3.91830491928720
H            5.46734197721967        4.71836309030080       -2.33153653636332
H            5.88723675207088        2.28982524532050       -2.17525570493688
H            4.07913403037360        0.73484362039168       -2.83128623557576
H            0.84191197162671        4.48546997475510       -8.12793890168608
H           -0.79677779195261        5.66795704238122       -9.41358121736115
H           -1.96977423923307        7.80090754286779       -9.78667921367508
H           -2.18223975463440        9.41618667712964       -7.94886737045150
H           -1.24085676946709        8.89419852332432       -5.73832745814589
H           -0.06714921658541        6.74969015600337       -5.38151608860384
H            3.81643538373869        4.01952553393537       -5.40867911474371
H            5.97232174440900        4.90428146335365       -6.14831225108933
H            6.05811614550051        6.78174284694956       -7.74075967264842
H            3.97287180183331        7.77338997614428       -8.57750277217925
H            1.81767132145184        6.89113215687483       -7.84519747719972
H            0.25220357369914        1.39459363345792       -1.84260188082490
H           -1.10015717978951       -0.28555582920403       -2.27053513237503
H           -2.14472777521589        0.91088993229190       -1.48085167778661
H           -2.79903328587598       -0.14869473755607       -2.73016393847487
H           -2.54108205193724        3.08962068246256       -4.55412200976447
H           -2.72881375152799        3.17041951952780       -2.81353831779397
H           -3.64816040792580        1.98735888112832       -3.75028263149376
H           -0.53048845665330       -0.01278447732980       -4.74008756467396
H           -2.21341612838166        0.25520693435439       -5.19581162709973
H           -0.99496156776604        1.46054813158514       -5.60264004020678
H           -0.37241761073957        5.71472633371357       -1.34758297402066
H           -1.12622546943121        4.99252262871484       -2.77146209418669
H            0.60602558898252        5.32804446389057       -2.75333060139099
H            2.19315939701082        3.79828075752472       -1.49422291210219
H            1.55408478994902        2.55132296529880       -0.43142591538160
H            1.37701470004899        4.25384363418884       -0.00545759160095
H           -2.06261235960034        3.27020967324859       -1.01991852638069
H           -0.91666976065026        2.22763707417994       -0.17008921661524
H           -1.06782939925597        3.92104274865139        0.26707473465420
H            1.77180979554854        0.40352530127809       -3.25081232802789
H            1.49152061453721        1.23978021228108       -4.76895360097065
