73
 energy: -102.696058341320 gnorm: 0.246066125494 xtb: 6.7.1 (edcfbbe)
C            3.29334943014065        5.94270769589864       -3.21725525767283
C            3.54192841485226        4.47782247159527       -3.20607495357192
C            4.72884571717222        4.01300724399040       -2.67675541528800
C            4.95623929831167        2.66327582451254       -2.56972109784263
C            3.95810253158889        1.79870102104936       -2.94654370155322
C            2.76953798473271        2.29995053572996       -3.44447701529253
N            2.56986074704405        3.63694657614714       -3.67157431745348
Ni           0.82019449451674        3.67285889124819       -4.66292390121181
O           -0.94759488604508        3.66500381271597       -5.57747737266613
C           -0.62070797178286        3.71015154121866       -6.82163841050826
O           -1.03113464129046        2.99617216190816       -7.73326370274240
C            0.37872586456061        4.78823219420035       -7.17845789806749
C           -0.32541679842878        6.09932007130401       -7.38357529513420
C           -0.87760475105999        6.39077572872962       -8.61931155939121
C           -1.54064350148395        7.58102373782277       -8.82281190630398
C           -1.66439216695931        8.48441394091927       -7.78927211742389
C           -1.13570146317651        8.19258911623468       -6.54951953986269
C           -0.47416748361569        6.99991663625886       -6.34598819510853
N            1.42882641322377        4.82655359950493       -6.19495207653290
C            2.64040088376214        5.38311864030914       -6.55777327464324
C            3.85247106420916        4.84027766989767       -6.10003457629563
C            5.05929194215206        5.33497711302080       -6.52248768255493
C            5.10774002033256        6.38999760687778       -7.41579544882447
C            3.93380509314117        6.94561097638728       -7.88825069799580
C            2.72277737450385        6.44838488376797       -7.47754363681948
P            0.08366392101806        2.26734337013862       -2.98710530247126
C           -1.55857269266626        1.45188209472936       -3.50780473710231
C           -1.91755680978708        0.42458045764470       -2.43435132171245
C           -2.68002947623439        2.48359741513238       -3.65790678669368
C           -1.30696049232728        0.74750373955602       -4.83887267824720
C            0.02888084843446        3.59762132635006       -1.57604798895567
C           -0.23208496078845        4.98641710552159       -2.14777435140877
C            1.36558027713821        3.54725870055508       -0.83662954729725
C           -1.07065091279540        3.22808007647098       -0.57632626879928
C            1.62042464402183        1.39242937785085       -3.69363610317682
H            2.99033705918762        6.29746985294952       -2.23100090434986
H            4.18304195396414        6.50147012398630       -3.50976317937279
H            2.49714741949120        6.19505935565182       -3.91830491928720
H            5.46734197721967        4.71836309030080       -2.33153653636332
H            5.88723675207088        2.28982524532050       -2.17525570493688
H            4.07913403037360        0.73484362039168       -2.83128623557576
H            0.84191197162671        4.48546997475510       -8.12793890168608
H           -0.79677779195261        5.66795704238122       -9.41358121736115
H           -1.96977423923307        7.80090754286779       -9.78667921367508
H           -2.18223975463440        9.41618667712964       -7.94886737045150
H           -1.24085676946709        8.89419852332432       -5.73832745814589
H           -0.06714921658541        6.74969015600337       -5.38151608860384
H            3.81643538373869        4.01952553393537       -5.40867911474371
H            5.97232174440900        4.90428146335365       -6.14831225108933
H            6.05811614550051        6.78174284694956       -7.74075967264842
H            3.97287180183331        7.77338997614428       -8.57750277217925
H            1.81767132145184        6.89113215687483       -7.84519747719972
H            0.25220357369914        1.39459363345792       -1.84260188082490
H           -1.10015717978951       -0.28555582920403       -2.27053513237503
H           -2.14472777521589        0.91088993229190       -1.48085167778661
H           -2.79903328587598       -0.14869473755607       -2.73016393847487
H           -2.54108205193724        3.08962068246256       -4.55412200976447
H           -2.72881375152799        3.17041951952780       -2.81353831779397
H           -3.64816040792580        1.98735888112832       -3.75028263149376
H           -0.53048845665330       -0.01278447732980       -4.74008756467396
H           -2.21341612838166        0.25520693435439       -5.19581162709973
H           -0.99496156776604        1.46054813158514       -5.60264004020678
H           -0.37241761073957        5.71472633371357       -1.34758297402066
H           -1.12622546943121        4.99252262871484       -2.77146209418669
H            0.60602558898252        5.32804446389057       -2.75333060139099
H            2.19315939701082        3.79828075752472       -1.49422291210219
H            1.55408478994902        2.55132296529880       -0.43142591538160
H            1.37701470004899        4.25384363418884       -0.00545759160095
H           -2.06261235960034        3.27020967324859       -1.01991852638069
H           -0.91666976065026        2.22763707417994       -0.17008921661524
H           -1.06782939925597        3.92104274865139        0.26707473465420
H            1.77180979554854        0.40352530127809       -3.25081232802789
H            1.49152061453721        1.23978021228108       -4.76895360097065
73
 energy: -102.753470198309 gnorm: 0.092470695616 xtb: 6.7.1 (edcfbbe)
C            3.27698122045054        5.94418576825526       -3.23174666488156
C            3.50704096595810        4.47090773189332       -3.22221402817074
C            4.70959748506391        4.01608200696276       -2.68760456775830
C            4.95346626229314        2.66220698517700       -2.57485914696884
C            3.94957397037073        1.79837309985262       -2.95024911478154
C            2.75816996833263        2.30360061200648       -3.45954411838306
N            2.52598608474775        3.62960082425681       -3.67664138003294
Ni           0.85034276571809        3.67473243892622       -4.65149730279497
O           -0.81913632640781        3.65254658248232       -5.53046094910534
C           -0.59568819978887        3.71608189559268       -6.79448576447857
O           -1.04703759140186        3.00779271653204       -7.68474408225313
C            0.41904826162221        4.79675133798252       -7.17126918170215
C           -0.32997628018734        6.09107591470608       -7.37667006524952
C           -0.88082208626581        6.38293302044780       -8.61913503806215
C           -1.54334921911480        7.57735081733588       -8.82522185534429
C           -1.66689266679885        8.48676912672800       -7.79061461193883
C           -1.13787277825210        8.19311830694603       -6.54716440965347
C           -0.47884986212167        6.99672523305054       -6.33833746917300
N            1.44024957002900        4.77966667391996       -6.13805838713960
C            2.62762722796989        5.35777837658389       -6.54995494320326
C            3.85270563240159        4.83627335604544       -6.09892861022488
C            5.06032741824910        5.34031662033923       -6.51756249359498
C            5.10947968883195        6.39486415529262       -7.41316966384445
C            3.92546590118335        6.94100593661202       -7.88126691714702
C            2.70939534238120        6.43360662927286       -7.47119066220684
P            0.10162916775879        2.32286445512870       -3.01827451642045
C           -1.54715923255640        1.46131216652001       -3.50490469504569
C           -1.91690125145293        0.42793834752842       -2.43612665645137
C           -2.67795395289836        2.48266072935481       -3.65721903688282
C           -1.30390132348372        0.74707717832971       -4.83461779281619
C            0.02485071944857        3.61742828852026       -1.56854919613605
C           -0.23446819802255        4.99680672291263       -2.14812591835635
C            1.36229075644674        3.54936106176925       -0.83155481670379
C           -1.07136339542200        3.23016713801632       -0.57509323707167
C            1.62337896040541        1.39429246500585       -3.71936965082847
H            2.98851353387847        6.28801995640549       -2.23582548315400
H            4.17820562898174        6.48960467846048       -3.51412110397681
H            2.48278137142134        6.19854104679900       -3.92850990937226
H            5.44808743092724        4.72478369934291       -2.34042734535707
H            5.88640653826922        2.29149952922586       -2.17725650266289
H            4.07332124379905        0.73327373050532       -2.83486405141362
H            0.85653640831222        4.49689698997636       -8.13784800843028
H           -0.79264972871067        5.66346072377682       -9.41821937405152
H           -1.96891024508934        7.79829136371169       -9.79219625472037
H           -2.18429182174680        9.42004975409482       -7.95187759954630
H           -1.24212984511520        8.89686303565427       -5.73604382144494
H           -0.06592669404071        6.75062110365351       -5.37210581068789
H            3.82859932341842        3.99866787647719       -5.43053715185434
H            5.97590886474941        4.90216778552447       -6.14972601700085
H            6.06018101298491        6.78512584856799       -7.74299311540128
H            3.96244666816500        7.76912616719905       -8.57497582772410
H            1.80629478176411        6.88607213631199       -7.84227401986694
H            0.24574982303064        1.39976098730512       -1.89693604881488
H           -1.10461224714501       -0.28275940695301       -2.27481887725411
H           -2.14574170812710        0.90743742371424       -1.48549956075524
H           -2.79744469964984       -0.14021475462593       -2.73896242445338
H           -2.53042304526145        3.08437809467061       -4.55157764611812
H           -2.73186423792287        3.16372805482968       -2.81153846763648
H           -3.64064318829956        1.97836142493718       -3.74718253240528
H           -0.53371647980374       -0.01848888097306       -4.73641480667110
H           -2.21505852361160        0.26197055401207       -5.18532668683669
H           -0.99971632576405        1.45748912484377       -5.60072706131521
H           -0.37229931736240        5.72150047395251       -1.34595259953741
H           -1.12852773127115        4.99002625978074       -2.77102038803925
H            0.60754785114647        5.32222063787851       -2.76285221357244
H            2.18999423137131        3.80534241300305       -1.47977942196686
H            1.54593273787736        2.55093267956249       -0.43201948820065
H            1.36815659850400        4.25232736184985        0.00019674412857
H           -2.06174698066409        3.27343058379329       -1.01832656029876
H           -0.91091571678124        2.22978123055936       -0.17365753891225
H           -1.06092634424590        3.92392198297961        0.26587830717857
H            1.76855131266924        0.41229109139359       -3.25443208572124
H            1.48151551428807        1.25179751872346       -4.79408130214012
73
 energy: -102.769670871123 gnorm: 0.028522996945 xtb: 6.7.1 (edcfbbe)
C            3.25141725705518        5.94435088161671       -3.25146912073234
C            3.48039202616917        4.46694118118317       -3.23778771186066
C            4.68560246113199        4.02061251195199       -2.70128293116142
C            4.94380398116169        2.66390653216482       -2.58053757478194
C            3.94275969401633        1.79576076435354       -2.95838244926085
C            2.75418272432621        2.29933098347632       -3.48110123087895
N            2.50930477406875        3.61870675130242       -3.68117064418183
Ni           0.88430634476972        3.67574957091545       -4.63648424555306
O           -0.72050531420279        3.64980042324563       -5.49488777325088
C           -0.56094012835441        3.70424920425645       -6.76566675943490
O           -1.09326894875321        3.03202498312530       -7.63500395789921
C            0.45442456038629        4.80189724491605       -7.15965629602416
C           -0.32662045930191        6.08138070424415       -7.36314253867748
C           -0.87900520300838        6.36886454049224       -8.61014032652999
C           -1.54518786982072        7.56271425687499       -8.82095162710216
C           -1.67091428117515        8.47976664171227       -7.78989095501413
C           -1.14525513118135        8.18759996608069       -6.54264417830973
C           -0.48425625168009        6.99161303408026       -6.32653283055866
N            1.46648024322830        4.74034909211347       -6.10407120083571
C            2.63365380143824        5.33917806888210       -6.53483121856532
C            3.86955025365448        4.82332917139536       -6.10514345277284
C            5.07264826805863        5.34238997554377       -6.51776068550086
C            5.11129988793185        6.40278118091309       -7.40795137320331
C            3.91433681826401        6.93114027190289       -7.87008000685303
C            2.70130302522074        6.41857433205366       -7.45346431920117
P            0.11325519103395        2.34522540130313       -3.02241160091909
C           -1.54113878933098        1.47274630865525       -3.50778545582619
C           -1.91216963640508        0.43902566107724       -2.43966523491591
C           -2.67620486133725        2.48581467413847       -3.66301746737709
C           -1.30374811318577        0.74587327756482       -4.83142859822698
C            0.02020561227487        3.63580641147055       -1.56066735086141
C           -0.23904510644414        5.01252513837933       -2.14244377474346
C            1.35367876619267        3.56100051071357       -0.81702150412389
C           -1.07161597887258        3.23967812907991       -0.57147941238211
C            1.62793821680697        1.39431551777129       -3.76229235992552
H            2.97516649262988        6.27840102566133       -2.24833099409911
H            4.16180489733748        6.47418178586720       -3.52908528965132
H            2.45818796958097        6.20481491053322       -3.94512566185421
H            5.41776561205575        4.73651493906279       -2.35798537992015
H            5.87910639190565        2.29963009458323       -2.18205937428168
H            4.06619419047692        0.73035370398451       -2.84510078253609
H            0.88785160187394        4.51662968353575       -8.13197845502432
H           -0.78170806802582        5.65367850406395       -9.41422207948808
H           -1.96227693821602        7.78420834698377       -9.79328569210004
H           -2.18215410146421        9.41670505896256       -7.95802600037513
H           -1.24589005866180        8.89791079412784       -5.73530507514903
H           -0.06705240484309        6.75354286553042       -5.35780561818925
H            3.86135986861355        3.95817556365680       -5.46851206328788
H            5.99053417471465        4.90220898033958       -6.15469231732671
H            6.05785765023196        6.79871847184649       -7.74387177558941
H            3.93880453054237        7.75803386155534       -8.56754079928205
H            1.79787191251859        6.87122656192073       -7.83086882077556
H            0.26369113005736        1.40271838061952       -1.92012712949451
H           -1.10658090238949       -0.27647531404919       -2.28250825706042
H           -2.14651414525697        0.90940084593367       -1.48931465064555
H           -2.79217787311860       -0.11937091174346       -2.75864313428039
H           -2.52428661111406        3.08657341616223       -4.55418117545321
H           -2.73924467307848        3.15676126524313       -2.81118277001777
H           -3.63054153507810        1.96791232372883       -3.75271988477727
H           -0.54315199141216       -0.02738560359678       -4.72761783439305
H           -2.22371133003657        0.26915035292770       -5.16776812098404
H           -1.00356763931268        1.44600621098449       -5.60581418643229
H           -0.36998965141593        5.74541209530820       -1.34762747316418
H           -1.13521171168680        4.99333416279859       -2.76219858339149
H            0.60151641531253        5.31967379864474       -2.77345124399457
H            2.18832087863897        3.82329764614324       -1.45070001223603
H            1.52655626639326        2.55608082730430       -0.43092446512498
H            1.35054794687237        4.25343270594489        0.02305250043959
H           -2.06200977636138        3.28193515441629       -1.01186894057115
H           -0.90086107798169        2.23782108694894       -0.18100238022226
H           -1.05338042649070        3.93054305091712        0.27104352638120
H            1.76222200023709        0.41666156817362       -3.28810143053062
H            1.46770415224030        1.26911348724744       -4.83755900848587
73
 energy: -102.775211529966 gnorm: 0.022761048114 xtb: 6.7.1 (edcfbbe)
C            3.22333321075705        5.94269880578742       -3.27356510591636
C            3.46716909867062        4.46695261053195       -3.24643346205080
C            4.67039179531646        4.02541274218033       -2.71178544955940
C            4.93464760418393        2.66802747578349       -2.58761418443371
C            3.94217086525155        1.79129898121900       -2.97113344460946
C            2.75583497623816        2.29018291608332       -3.50009662457341
N            2.51196149787602        3.60954005896376       -3.67871925725256
Ni           0.90172178108470        3.67297593139880       -4.62740341329896
O           -0.69252395705447        3.64397609911946       -5.48081183749209
C           -0.56518101867376        3.71236092843698       -6.75060024634659
O           -1.12472252484298        3.05110566293087       -7.60251022316671
C            0.47516904306727        4.79770700111525       -7.14476024587640
C           -0.31345770129543        6.07111300871905       -7.34410831959517
C           -0.86649029163683        6.34998724018351       -8.59364855044150
C           -1.53937762798762        7.53870986441388       -8.81184910828406
C           -1.67201662773643        8.46204448222201       -7.78670267888163
C           -1.15109777675802        8.17634719950511       -6.53562834806533
C           -0.48488521210271        6.98411900626333       -6.31078440525276
N            1.49585680706620        4.71681195130781       -6.09513164330890
C            2.65744459723816        5.31783844752950       -6.52322078008491
C            3.90149548766798        4.79694977538369       -6.11950365401833
C            5.09674435213618        5.33969118204115       -6.52593147169545
C            5.11701720068667        6.41442427813416       -7.40134909763648
C            3.90925936743470        6.92706615672575       -7.85401120990263
C            2.70495697991345        6.40489203432278       -7.42950347227432
P            0.12220124671926        2.35766005083018       -3.01310631485632
C           -1.53074946400874        1.48661932667176       -3.50671038738837
C           -1.90848071596958        0.45255410304950       -2.44327058390092
C           -2.67066877413756        2.49105619096004       -3.66860647854612
C           -1.30501786015637        0.74691532539934       -4.82508122271877
C            0.01374617770386        3.65446307065542       -1.54990385294253
C           -0.24656459800306        5.02821395126992       -2.13971851163183
C            1.34049969323289        3.57861532305910       -0.79437758242105
C           -1.07546365223850        3.25300471359361       -0.56287484825273
C            1.62721549820118        1.39704164062072       -3.80752467353466
H            2.94954699764137        6.27686393500098       -2.27070216442973
H            4.13226779100288        6.46800293147615       -3.55852892877696
H            2.42677347894589        6.19819857968471       -3.96624843458850
H            5.39570246985801        4.74900896318649       -2.37434229546802
H            5.87094926433111        2.31121250475976       -2.18682982380727
H            4.06709967836815        0.72567666724669       -2.86258611199219
H            0.91665706203461        4.52443192837008       -8.11609249940770
H           -0.76204266060402        5.63484169563420       -9.39744497979033
H           -1.95192336397109        7.75430730118074       -9.78801200971490
H           -2.18070161825917        9.39932376733212       -7.96371882416350
H           -1.25570763587407        8.89187811830894       -5.73280793390680
H           -0.07089668813891        6.75408737387314       -5.33799936430478
H            3.90971905509966        3.90256460494615       -5.51746767726203
H            6.02005987621510        4.90178858771141       -6.17341563752482
H            6.05585347865419        6.82522140980120       -7.74082862593589
H            3.91464504664836        7.75193345099988       -8.55416397787609
H            1.79617976474564        6.85167853901235       -7.80211565083740
H            0.29878184325807        1.40269097605657       -1.93661643704715
H           -1.10756956149662       -0.26812761156901       -2.28950978822147
H           -2.14681740473856        0.91692440709249       -1.49157000738787
H           -2.78932536162675       -0.09667818114211       -2.77628913481959
H           -2.51866099816359        3.09486970325011       -4.55669222470889
H           -2.74986219989494        3.15475932452437       -2.81236630156382
H           -3.61678624091943        1.95952691093606       -3.76735514997134
H           -0.55536608908505       -0.03623119303779       -4.71672355587010
H           -2.23549941764395        0.27820679966989       -5.14476371874503
H           -1.00616938883285        1.43230599174109       -5.61264437379578
H           -0.36279476240370        5.77270659113486       -1.35325349228396
H           -1.15090914858476        5.00528254855824       -2.74766132843930
H            0.58724041869618        5.32129374728187       -2.78878083378411
H            2.18521920500550        3.85421544907748       -1.41047704661998
H            1.50706950154473        2.56705763581683       -0.42270660457872
H            1.32144965983579        4.25586269005847        0.05879019485897
H           -2.06746032081708        3.29718243483370       -0.99872586837406
H           -0.89745214232676        2.24819830168702       -0.18350930032213
H           -1.05187528318978        3.93766243454038        0.28454790610547
H            1.75351612866665        0.40912752722508       -3.35744671202292
H            1.45037108859035        1.30632061857304       -4.88621959322290
73
 energy: -102.779582239367 gnorm: 0.019951632968 xtb: 6.7.1 (edcfbbe)
C            3.19132538570684        5.94003269848184       -3.30259042414755
C            3.45938751469264        4.46810091765666       -3.26204801199534
C            4.66031640297305        4.03153115777728       -2.72584894919499
C            4.92595296044078        2.67450912640806       -2.59682146680777
C            3.94587908714707        1.78596156855358       -2.98860229414842
C            2.76170687629194        2.27765087970026       -3.52551804483059
N            2.52260415252481        3.59924531848656       -3.68002668426707
Ni           0.91673650338617        3.66825511172816       -4.62214017121672
O           -0.67866712372366        3.64401022665477       -5.47419898547833
C           -0.56507246498938        3.71440467724119       -6.73714696902929
O           -1.19427744816460        3.09852384726336       -7.57976001898596
C            0.49808964703718        4.78636248647509       -7.13219426668557
C           -0.29548905739617        6.05548068485433       -7.31967343112764
C           -0.84820942832245        6.32409604724052       -8.57160389392742
C           -1.52969817568004        7.50531429194512       -8.79905403530343
C           -1.67233072665776        8.43450517792025       -7.78060626193286
C           -1.15735714403180        8.15712119371150       -6.52511956243281
C           -0.48376407014497        6.97042049998732       -6.29012214039863
N            1.52990349765670        4.68892595380799       -6.09513550341996
C            2.69074468163854        5.28595731177007       -6.51449507110327
C            3.94201492815166        4.75949045897343       -6.13589289903372
C            5.12746700753011        5.33135335479854       -6.53712884505059
C            5.12692481918992        6.42629598019014       -7.39070462926118
C            3.91008101420808        6.92507068833709       -7.83128017943667
C            2.71687811127997        6.38661194569806       -7.40121108061113
P            0.12944430364995        2.36925739178268       -3.00459798437682
C           -1.51938547358457        1.50291736319552       -3.50231095329730
C           -1.90227195951137        0.46972524539652       -2.44152986446355
C           -2.66316929601702        2.50043455716988       -3.67215124031135
C           -1.30504062053379        0.75080167917059       -4.81609132428282
C            0.00102590754730        3.67108004256754       -1.53608155709043
C           -0.25948362970583        5.04121652849939       -2.13567114330415
C            1.32239431446365        3.60060024517280       -0.76976100331186
C           -1.08760759037219        3.26598434141375       -0.55182564069445
C            1.62846215456293        1.40286883499713       -3.86829329203831
H            2.91616411616110        6.27880175338892       -2.30268844718342
H            4.09171686711509        6.46982499756011       -3.60136808756557
H            2.38725165888702        6.17921770458207       -3.99417430952432
H            5.37857620249718        4.76301442031314       -2.39293061731558
H            5.86210047067558        2.32664944798860       -2.18978367550026
H            4.07622118250733        0.72015971920920       -2.88744027085082
H            0.94564759001394        4.52544909530181       -8.10331940998300
H           -0.73416643882419        5.60784634713898       -9.37315245498209
H           -1.93940413224267        7.71101779899234       -9.77860133418947
H           -2.18219775287528        9.36935432801067       -7.96713405797493
H           -1.27144506189149        8.87669175354908       -5.72683100205125
H           -0.07559792493834        6.75006540415138       -5.31214727972783
H            3.96773072327974        3.84384248554342       -5.56341928125815
H            6.05897216711084        4.89822047175235       -6.20016559880281
H            6.05624033411935        6.86036548608460       -7.72783923237836
H            3.89286608731796        7.75283233463890       -8.52766237555355
H            1.80091515452152        6.83038638650147       -7.75828585401533
H            0.33525138655726        1.43385229344840       -1.93666979635449
H           -1.10551075016205       -0.25600155331540       -2.29108621590983
H           -2.14398096643204        0.92883587993794       -1.48838120631027
H           -2.78385600679074       -0.07132992374346       -2.78550830514181
H           -2.50804926998796        3.11126284590893       -4.55474788842094
H           -2.76381971032637        3.15481243575529       -2.81031537339200
H           -3.60037096321982        1.95597219832498       -3.78919495390012
H           -0.56759159577684       -0.04316448048300       -4.70468202315597
H           -2.24689537013531        0.29158971343015       -5.11756522705755
H           -1.00740112334114        1.41872008396898       -5.61888803545122
H           -0.34859360054325        5.80014859902164       -1.35817092866504
H           -1.17845291972638        5.02066217443306       -2.72161063275967
H            0.56225183500541        5.31616819865176       -2.81040961138329
H            2.17630148606386        3.89764364838775       -1.36669491413419
H            1.49069374217424        2.58307152346199       -0.41529295961459
H            1.28210579523640        4.25772441541582        0.10006360432311
H           -2.08132795499318        3.31646484778273       -0.98317255105991
H           -0.90574592571126        2.25716887099905       -0.18495868283246
H           -1.05844774675522        3.94141211206802        0.30325006166813
H            1.74425533392575        0.39482558834834       -3.46218744045024
H            1.43549902066544        1.36485775974172       -4.95085480895473
73
 energy: -102.782183325844 gnorm: 0.015340726269 xtb: 6.7.1 (edcfbbe)
C            3.16527795979661        5.93670988734042       -3.33074776579181
C            3.45586459598089        4.46920228838834       -3.27659299688370
C            4.65777649525310        4.03717324393929       -2.73808427313395
C            4.92103783335008        2.68086869627901       -2.60744777956601
C            3.95185462358638        1.78229135821490       -3.00710904028031
C            2.76737263546506        2.26714417578758       -3.54850043045048
N            2.53202487523580        3.59120628168420       -3.68533309443876
Ni           0.92392317254310        3.66020622363355       -4.62252273911810
O           -0.67704122414118        3.63931966155506       -5.47193860463535
C           -0.58580618487452        3.73592538632826       -6.73413453879402
O           -1.23248352341727        3.14133679756719       -7.56543507376640
C            0.51595427544417        4.77430915110793       -7.12648768106932
C           -0.27423337450508        6.04330829246543       -7.30235362713073
C           -0.82717722065243        6.30253121002752       -8.55515616437337