73
 energy: -102.807513942724 gnorm: 0.000148051698 xtb: 6.7.1 (edcfbbe)
C            2.97642916537779        6.29871671762411       -3.95752582977312
C            3.31868315331894        4.90869595558563       -3.52334162563969
C            4.48558143292039        4.69768447076762       -2.80460650640471
C            4.81300164425982        3.42158190134432       -2.36755572236306
C            3.97254621097353        2.37847939447633       -2.68880217711966
C            2.82887563278572        2.63735388281440       -3.44427677404537
N            2.49240117112694        3.89530775891147       -3.80921866143164
Ni           0.95549888528264        3.61016855329837       -4.82070427703691
O           -0.55765247260374        3.30242034323310       -5.77776806917597
C           -0.62040529141944        3.81059444073357       -6.93715933525187
O           -1.46614981914955        3.62683782492057       -7.78073027749166
C            0.56043205592522        4.82608812150935       -7.20854629855760
C           -0.07096048208260        6.15593256755535       -6.88573670088978
C           -0.46111088402899        7.01922042113354       -7.90238925751409
C           -1.05178403899983        8.23122967542423       -7.59322954476418
C           -1.26321836329793        8.59189845795091       -6.27278492523087
C           -0.89353461132308        7.72678167869645       -5.25639445200926
C           -0.30767172023429        6.51472855260094       -5.56592465677468
N            1.64643378409319        4.40109668210569       -6.36598677428836
C            2.90147256279896        4.72475111227943       -6.78984348107341
C            3.99523132791644        3.90398804037821       -6.45018136685582
C            5.27305156576832        4.21896144942830       -6.85056424661523
C            5.51342988023224        5.35584957045464       -7.60994644091987
C            4.44918002203246        6.16975085883411       -7.96820624823505
C            3.16450399482782        5.86841878525665       -7.57116510468042
P            0.09449439861033        2.60621589555702       -3.06273311574493
C           -1.07245647217686        1.13512875612624       -3.31693384509512
C           -0.98887060989535        0.23564452519207       -2.08406741013149
C           -2.50535395662596        1.60862521733936       -3.55302249872838
C           -0.67644382658867        0.32711556840530       -4.55732099738093
C           -0.90755978836312        4.01822480928845       -2.10126270991321
C           -1.98881759559757        4.68758514677588       -2.94315601641340
C            0.20018759236113        5.02833546980588       -1.79856093643985
C           -1.44781075022809        3.50916295979333       -0.76984711662431
C            1.85939933178719        1.63206912454900       -3.82634472461258
H            2.77561632155989        6.92389545274337       -3.08810487704568
H            3.81604116517322        6.73110020909515       -4.49868702611661
H            2.10648604579261        6.30339295649349       -4.60793491479656
H            5.12286772573333        5.53774367390239       -2.57937463511235
H            5.71230949228257        3.25177171562001       -1.79536169020110
H            4.19371376743390        1.36571740477727       -2.38998620903988
H            0.84325500093059        4.79759271090632       -8.26947551774293
H           -0.30424954575693        6.73903422617924       -8.93385628913309
H           -1.34931553043984        8.89824224193080       -8.38907641513330
H           -1.72294032964262        9.54022632678517       -6.03708188341214
H           -1.06764435204902        7.99465457904611       -4.22439199489677
H           -0.03996234533319        5.81011063914118       -4.77653206922071
H            3.81478530896920        2.99601650373845       -5.89285032289899
H            6.09253636390016        3.56828193345056       -6.57993104545095
H            6.51724345860553        5.60126746885847       -7.92189860269087
H            4.62677590921869        7.05713150228155       -8.55909728553014
H            2.35676999354873        6.53642964717492       -7.82932934998115
H            0.68569251323414        2.28556718397492       -1.83315680144065
H            0.03434439452750       -0.09976341290205       -1.92184993478931
H           -1.32668824715025        0.75093459792954       -1.18928518949688
H           -1.61585036596222       -0.64376460416143       -2.22771335048317
H           -2.53315440435561        2.29066141639768       -4.39893401526574
H           -2.92820686985049        2.09416163662000       -2.68102605318415
H           -3.13558876113532        0.75129312584565       -3.78834212407215
H            0.24065281828462       -0.23556350517790       -4.41158135618401
H           -1.46543598189813       -0.39054031502809       -4.77964144867833
H           -0.57575310084720        0.98202474845169       -5.41971544427104
H           -2.04232865224330        5.75221766655915       -2.71936445103829
H           -2.96953174888258        4.26207020570346       -2.75492189540705
H           -1.76898592143301        4.57350649870938       -4.00358008853262
H            0.59563789030220        5.44621006390475       -2.72358843646951
H            1.02150538729707        4.55352929406569       -1.25838045587861
H           -0.18281232960771        5.84493695425842       -1.18758919948986
H           -2.29103734942462        2.83539404771822       -0.89078257661502
H           -0.66767819371783        2.99476275806395       -0.20868758679903
H           -1.78594336330118        4.35583478634985       -0.17195914097657
H            2.06259237792756        0.65229538719875       -3.39594031127923
H            1.73666931343518        1.55953258678008       -4.91641089351290
