      -----------------------------------------------------------      
     |                   =====================                   |     
     |                           x T B                           |     
     |                   =====================                   |     
     |                         S. Grimme                         |     
     |          Mulliken Center for Theoretical Chemistry        |     
     |                    University of Bonn                     |     
      -----------------------------------------------------------      

   * xtb version 6.7.1 (edcfbbe) compiled by 'albert@albert-system' on 2024-07-22

   xtb is free software: you can redistribute it and/or modify it under
   the terms of the GNU Lesser General Public License as published by
   the Free Software Foundation, either version 3 of the License, or
   (at your option) any later version.
   
   xtb is distributed in the hope that it will be useful,
   but WITHOUT ANY WARRANTY; without even the implied warranty of
   MERCHANTABILITY or FITNESS FOR A PARTICULAR PURPOSE.  See the
   GNU Lesser General Public License for more details.
   
   Cite this work as:
   * C. Bannwarth, E. Caldeweyher, S. Ehlert, A. Hansen, P. Pracht,
     J. Seibert, S. Spicher, S. Grimme, WIREs Comput. Mol. Sci., 2020, 11,
     e01493. DOI: 10.1002/wcms.1493
   
   for GFN2-xTB:
   * C. Bannwarth, S. Ehlert and S. Grimme., J. Chem. Theory Comput., 2019,
     15, 1652-1671. DOI: 10.1021/acs.jctc.8b01176
   for GFN1-xTB:
   * S. Grimme, C. Bannwarth, P. Shushkov, J. Chem. Theory Comput., 2017,
     13, 1989-2009. DOI: 10.1021/acs.jctc.7b00118
   for GFN0-xTB:
   * P. Pracht, E. Caldeweyher, S. Ehlert, S. Grimme, ChemRxiv, 2019, preprint.
     DOI: 10.26434/chemrxiv.8326202.v1
   for GFN-FF:
   * S. Spicher and S. Grimme, Angew. Chem. Int. Ed., 2020, 59, 15665-15673.
     DOI: 10.1002/anie.202004239
   
   for ALPB and GBSA implicit solvation:
   * S. Ehlert, M. Stahn, S. Spicher, S. Grimme, J. Chem. Theory Comput.,
     2021, 17, 4250-4261. DOI: 10.1021/acs.jctc.1c00471
   
   for ddCOSMO and CPCM-X implicit solvation:
   * M. Stahn, S. Ehlert, S. Grimme, J. Phys. Chem. A,
     2023, XX, XXXX-XXXX. DOI: 10.1021/acs.jpca.3c04382
   
   for DFT-D4:
   * E. Caldeweyher, C. Bannwarth and S. Grimme, J. Chem. Phys., 2017,
     147, 034112. DOI: 10.1063/1.4993215
   * E. Caldeweyher, S. Ehlert, A. Hansen, H. Neugebauer, S. Spicher,
     C. Bannwarth and S. Grimme, J. Chem. Phys., 2019, 150, 154122.
     DOI: 10.1063/1.5090222
   * E. Caldeweyher, J.-M. Mewes, S. Ehlert and S. Grimme, Phys. Chem. Chem. Phys.
     2020, 22, 8499-8512. DOI: 10.1039/D0CP00502A
   
   for sTDA-xTB:
   * S. Grimme and C. Bannwarth, J. Chem. Phys., 2016, 145, 054103.
     DOI: 10.1063/1.4959605
   
   in the mass-spec context:
   * V. Asgeirsson, C. Bauer and S. Grimme, Chem. Sci., 2017, 8, 4879.
     DOI: 10.1039/c7sc00601b
   * J. Koopman and S. Grimme, ACS Omega 2019, 4, 12, 15120-15133.
     DOI: 10.1021/acsomega.9b02011
   
   for metadynamics refer to:
   * S. Grimme, J. Chem. Theory Comput., 2019, 155, 2847-2862
     DOI: 10.1021/acs.jctc.9b00143
   
   for SPH calculations refer to:
   * S. Spicher and S. Grimme, J. Chem. Theory Comput., 2021, 17, 1701-1714
     DOI: 10.1021/acs.jctc.0c01306
   
   for ONIOM refer to:
   * C. Plett, A. Katbashev, S. Ehlert, S. Grimme, M. Bursch,
     Phys. Chem. Chem. Phys., 2023, 25, 17860-17868. DOI: 10.1039/D3CP02178E
   
   for DIPRO refer to:
   * J. Kohn, N. Gildemeister, S. Grimme, D. Fazzi, A. Hansen,
     J. Chem. Phys., 2023, just accepted.
   
   for PTB refer to:
   * S. Grimme, M. Mueller, A. Hansen, J. Chem. Phys., 2023, 158, 124111.
     DOI: 10.1063/5.0137838
   
   with help from (in alphabetical order)
   P. Atkinson, C. Bannwarth, F. Bohle, G. Brandenburg, E. Caldeweyher
   M. Checinski, S. Dohm, S. Ehlert, S. Ehrlich, I. Gerasimov, C. Hölzer
   A. Katbashev, J. Kohn, J. Koopman, C. Lavigne, S. Lehtola, F. März, M. Müller,
   F. Musil, H. Neugebauer, J. Pisarek, C. Plett, P. Pracht, F. Pultar,
   J. Seibert, P. Shushkov, S. Spicher, M. Stahn, M. Steiner, T. Strunk,
   J. Stückrath, T. Rose, and J. Unsleber
   
 * started run on 2026/01/28 at 10:27:43.171     
   ID    Z sym.   atoms
    1    8 O      1, 3
    2    6 C      2, 6-23, 25-32, 34-41
    3   28 Ni     4
    4    7 N      5, 24, 33
    5    1 H      42-77
constraining bond 24 4 to    1.8525000 Å, actual value:    1.9874685 Å
constraining bond 3 4 to    1.8050000 Å, actual value:    1.9487850 Å
constraining bond 5 4 to    1.8525000 Å, actual value:    1.9702294 Å
constraining bond 33 4 to    1.8525000 Å, actual value:    1.9919821 Å
constraining angle 3 4 5 to  180.0000000°, actual value:  136.7814968°
constraining angle 24 4 33 to  180.0000000°, actual value:  153.3848043°
constraining angle 3 4 24 to   90.0000000°, actual value:   91.3467165°

           -------------------------------------------------
          |                Calculation Setup                |
           -------------------------------------------------

          program call               : /groups/kemi/hteahan/opt/xtb-6.7.1/xtb-dist/bin/xtb sep_embed_final.xyz --opt verytight --iterations 1000 --input constrain2.inp --gfn2 --parallel 8 --chrg 2
          hostname                   : node067
          coordinate file            : sep_embed_final.xyz
          omp threads                :                     8


           -------------------------------------------------
          |                 G F N 2 - x T B                 |
           -------------------------------------------------

        Reference                      10.1021/acs.jctc.8b01176
      * Hamiltonian:
        H0-scaling (s, p, d)           1.850000    2.230000    2.230000
        zeta-weighting                 0.500000
      * Dispersion:
        s8                             2.700000
        a1                             0.520000
        a2                             5.000000
        s9                             5.000000
      * Repulsion:
        kExp                           1.500000    1.000000
        rExp                           1.000000
      * Coulomb:
        alpha                          2.000000
        third order                    shell-resolved
        anisotropic                    true
        a3                             3.000000
        a5                             4.000000
        cn-shift                       1.200000
        cn-exp                         4.000000
        max-rad                        5.000000


          ...................................................
          :                      SETUP                      :
          :.................................................:
          :  # basis functions                 206          :
          :  # atomic orbitals                 205          :
          :  # shells                          119          :
          :  # electrons                       211          :
          :  max. iterations                  1000          :
          :  Hamiltonian                  GFN2-xTB          :
          :  restarted?                      false          :
          :  GBSA solvation                  false          :
          :  PC potential                    false          :
          :  electronic temp.          300.0000000     K    :
          :  accuracy                    1.0000000          :
          :  -> integral cutoff          0.2500000E+02      :
          :  -> integral neglect         0.1000000E-07      :
          :  -> SCF convergence          0.1000000E-05 Eh   :
          :  -> wf. convergence          0.1000000E-03 e    :
          :  Broyden damping             0.4000000          :
          :  net charge                          2          :
          :  unpaired electrons                  0          :
          ...................................................

 iter      E             dE          RMSdq      gap      omega  full diag
   1   -115.2676352 -0.115268E+03  0.497E+00    0.04       0.0  T
   2   -114.8309333  0.436702E+00  0.329E+00    0.13       1.0  T
   3   -111.2108904  0.362004E+01  0.518E+00    0.24       1.0  T
   4   -114.9123385 -0.370145E+01  0.274E+00    0.19       1.0  T
   5   -115.2252039 -0.312865E+00  0.159E+00    0.31       1.0  T
   6   -115.2846698 -0.594659E-01  0.187E+00    0.35       1.0  T
   7   -115.5528470 -0.268177E+00  0.802E-01    0.33       1.0  T
   8   -115.5850654 -0.322184E-01  0.573E-01    0.38       1.0  T
   9   -115.6083174 -0.232519E-01  0.391E-01    0.32       1.0  T
  10   -115.6037934  0.452398E-02  0.464E-01    0.39       1.0  T
  11   -115.6176282 -0.138348E-01  0.179E-01    0.35       1.0  T
  12   -115.6194078 -0.177959E-02  0.966E-02    0.36       1.0  T
  13   -115.6190387  0.369064E-03  0.884E-02    0.35       1.0  T
  14   -115.6198488 -0.810090E-03  0.501E-02    0.36       1.0  T
  15   -115.6200450 -0.196249E-03  0.266E-02    0.35       1.0  T
  16   -115.6200632 -0.181121E-04  0.212E-02    0.36       1.0  T
  17   -115.6200952 -0.320661E-04  0.954E-03    0.36       1.2  T
  18   -115.6201000 -0.475420E-05  0.380E-03    0.36       3.0  T
  19   -115.6201009 -0.969813E-06  0.257E-03    0.36       4.4  T
  20   -115.6201005  0.449241E-06  0.264E-03    0.35       4.3  T
  21   -115.6201011 -0.649817E-06  0.132E-03    0.36       8.6  T
  22   -115.6201010  0.185362E-06  0.162E-03    0.35       7.1  T
  23   -115.6201011 -0.182280E-06  0.102E-03    0.35      11.1  T
  24   -115.6201012 -0.862459E-07  0.503E-04    0.36      22.7  T
  25   -115.6201012 -0.143583E-07  0.310E-04    0.35      36.8  T

   *** convergence criteria satisfied after 25 iterations ***

         #    Occupation            Energy/Eh            Energy/eV
      -------------------------------------------------------------
         1        2.0000           -0.9456209             -25.7317
       ...           ...                  ...                  ...
       100        2.0000           -0.6073054             -16.5256
       101        1.9999           -0.6061157             -16.4932
       102        1.9994           -0.6041150             -16.4388
       103        1.9982           -0.6031360             -16.4122
       104        1.9933           -0.6018802             -16.3780
       105        1.7584           -0.5982142             -16.2782
       106        1.2497           -0.5960863             -16.2203 (HOMO)
       107        0.0011           -0.5830403             -15.8653 (LUMO)
       108                         -0.5574354             -15.1686
       109                         -0.5210246             -14.1778
       110                         -0.4738728             -12.8947
       111                         -0.4481646             -12.1952
       ...                                ...                  ...
       205                          1.8147581              49.3821
      -------------------------------------------------------------
                  HL-Gap            0.0130460 Eh            0.3550 eV
             Fermi-level           -0.5933202 Eh          -16.1451 eV

 SCC (total)                   0 d,  0 h,  0 min,  0.148 sec
 SCC setup                      ...        0 min,  0.001 sec (  0.412%)
 Dispersion                     ...        0 min,  0.001 sec (  0.952%)
 classical contributions        ...        0 min,  0.000 sec (  0.067%)
 integral evaluation            ...        0 min,  0.008 sec (  5.458%)
 iterations                     ...        0 min,  0.119 sec ( 80.587%)
 molecular gradient             ...        0 min,  0.017 sec ( 11.617%)
 printout                       ...        0 min,  0.001 sec (  0.886%)

         :::::::::::::::::::::::::::::::::::::::::::::::::::::
         ::                     SUMMARY                     ::
         :::::::::::::::::::::::::::::::::::::::::::::::::::::
         :: total energy            -113.696042928573 Eh    ::
         :: gradient norm              0.334980461015 Eh/a0 ::
         :: HOMO-LUMO gap              0.354999053153 eV    ::
         ::.................................................::
         :: SCC energy              -115.614491759565 Eh    ::
         :: -> isotropic ES            0.259476171239 Eh    ::
         :: -> anisotropic ES         -0.028526295160 Eh    ::
         :: -> anisotropic XC          0.066797019648 Eh    ::
         :: -> dispersion             -0.115309159025 Eh    ::
         :: repulsion energy           1.709816279572 Eh    ::
         :: add. restraining           0.208632551420 Eh    ::
         :: total charge               2.000000000000 e     ::
         :::::::::::::::::::::::::::::::::::::::::::::::::::::

      ----------------------------------------------------------- 
     |                   =====================                   |
     |                        A N C O P T                        |
     |                   =====================                   |
     |               Approximate Normal Coordinate               |
     |                Rational Function Optimizer                |
      ----------------------------------------------------------- 
      ----------------------------------------------------------- 
     |                   =====================                   |
     |                        A N C O P T                        |
     |                   =====================                   |
     |               Approximate Normal Coordinate               |
     |                Rational Function Optimizer                |
      ----------------------------------------------------------- 

          ...................................................
          :                      SETUP                      :
          :.................................................:
          :   optimization level         verytight          :
          :   max. optcycles                  1540          :
          :   ANC micro-cycles                  20          :
          :   degrees of freedom               225          :
          :.................................................:
          :   RF solver                   davidson          :
          :   write xtbopt.log                true          :
          :   linear?                        false          :
          :   energy convergence         0.1000000E-06 Eh   :
          :   grad. convergence          0.2000000E-03 Eh/α :
          :   maxmium RF displ.          1.0000000          :
          :   Hlow (freq-cutoff)         0.1000000E-01      :
          :   Hmax (freq-cutoff)         5.0000000          :
          :   S6 in model hess.         20.0000000          :
          ...................................................

generating ANC from exact Hessian ...
Using Lindh-Hessian (1995)
 Shifting diagonal of input Hessian by   9.904892398658140E-003
 Lowest  eigenvalues of input Hessian
    0.000000    0.000000    0.000000    0.000000    0.000000    0.010000
    0.000000    0.010226    0.010326    0.010356    0.010742    0.010756
    0.010981    0.011167    0.011422    0.011594    0.012068    0.012258
 Highest eigenvalues
    2.023514    2.027723    2.064488    2.102242    2.151606    2.370747
 

........................................................................
.............................. CYCLE    1 ..............................
........................................................................

 iter      E             dE          RMSdq      gap      omega  full diag
   1   -115.6201013 -0.115620E+03  0.129E-04    0.36       0.0  T
   2   -115.6201012  0.251583E-07  0.426E-04    0.36      26.7  T
   3   -115.6201013 -0.201292E-07  0.184E-04    0.36      62.1  T
     SCC iter.                  ...        0 min,  0.019 sec
     gradient                   ...        0 min,  0.017 sec
 * total energy  :  -113.6960429 Eh     change       -0.7413220E-08 Eh
   gradient norm :     0.3349808 Eh/α   predicted     0.0000000E+00 (-100.00%)
   displ. norm   :     0.4713734 α      lambda       -0.1229003E+00
   maximum displ.:     0.1292585 α      in ANC's #165, #190, #40, ...

........................................................................
.............................. CYCLE    2 ..............................
........................................................................

 iter      E             dE          RMSdq      gap      omega  full diag
   1   -115.6134326 -0.115613E+03  0.650E-01    0.55       0.0  T
   2   -115.3284009  0.285032E+00  0.130E+00    0.24       1.0  T
   3   -115.5321590 -0.203758E+00  0.720E-01    0.47       1.0  T
   4   -115.6324407 -0.100282E+00  0.372E-01    0.40       1.0  T
   5   -115.5970473  0.353934E-01  0.515E-01    0.44       1.0  T
   6   -115.6393772 -0.423299E-01  0.278E-01    0.40       1.0  T
   7   -115.6425500 -0.317279E-02  0.187E-01    0.42       1.0  T
   8   -115.6438241 -0.127415E-02  0.118E-01    0.44       1.0  T
   9   -115.6462795 -0.245544E-02  0.550E-02    0.46       1.0  T
  10   -115.6464289 -0.149332E-03  0.342E-02    0.46       1.0  T
  11   -115.6464115  0.173430E-04  0.337E-02    0.45       1.0  T
  12   -115.6464794 -0.678570E-04  0.188E-02    0.46       1.0  T
  13   -115.6464937 -0.143019E-04  0.946E-03    0.46       1.2  T
  14   -115.6464990 -0.534844E-05  0.577E-03    0.46       2.0  T
  15   -115.6465001 -0.100713E-05  0.376E-03    0.46       3.0  T
  16   -115.6465003 -0.216061E-06  0.227E-03    0.46       5.0  T
  17   -115.6465004 -0.118757E-06  0.161E-03    0.46       7.1  T
  18   -115.6465005 -0.720993E-07  0.106E-03    0.46      10.8  T
  19   -115.6465005 -0.604300E-07  0.667E-04    0.46      17.1  T
  20   -115.6465006 -0.595077E-07  0.325E-04    0.46      35.1  T
     SCC iter.                  ...        0 min,  0.091 sec
     gradient                   ...        0 min,  0.017 sec
 * total energy  :  -113.7887456 Eh     change       -0.9270271E-01 Eh
   gradient norm :     0.1793579 Eh/α   predicted    -0.7512037E-01 ( -18.97%)
   displ. norm   :     0.5596128 α      lambda       -0.7543996E-01
   maximum displ.:     0.1912132 α      in ANC's #40, #190, #144, ...

........................................................................
.............................. CYCLE    3 ..............................
........................................................................

 iter      E             dE          RMSdq      gap      omega  full diag
   1   -115.6756660 -0.115676E+03  0.530E-01    0.82       0.0  T
   2   -115.6362672  0.393988E-01  0.681E-01    0.50       1.0  T
   3   -115.6800939 -0.438267E-01  0.369E-01    0.65       1.0  T
   4   -115.6577073  0.223866E-01  0.479E-01    0.69       1.0  T
   5   -115.6622308 -0.452350E-02  0.366E-01    0.53       1.0  T
   6   -115.6887490 -0.265182E-01  0.175E-01    0.66       1.0  T
   7   -115.6899363 -0.118729E-02  0.137E-01    0.64       1.0  T
   8   -115.6919900 -0.205370E-02  0.696E-02    0.66       1.0  T
   9   -115.6924233 -0.433317E-03  0.377E-02    0.67       1.0  T
  10   -115.6923526  0.707585E-04  0.317E-02    0.68       1.0  T
  11   -115.6925169 -0.164331E-03  0.149E-02    0.67       1.0  T
  12   -115.6925320 -0.151260E-04  0.780E-03    0.67       1.5  T
  13   -115.6925322 -0.187374E-06  0.644E-03    0.67       1.8  T
  14   -115.6925342 -0.200491E-05  0.363E-03    0.67       3.1  T
  15   -115.6925340  0.208424E-06  0.286E-03    0.67       4.0  T
  16   -115.6925346 -0.575666E-06  0.118E-03    0.67       9.7  T
  17   -115.6925347 -0.136611E-06  0.518E-04    0.67      22.0  T
  18   -115.6925347 -0.469943E-08  0.388E-04    0.67      29.4  T
     SCC iter.                  ...        0 min,  0.083 sec
     gradient                   ...        0 min,  0.017 sec
 * total energy  :  -113.8462007 Eh     change       -0.5745504E-01 Eh
   gradient norm :     0.1271615 Eh/α   predicted    -0.4953265E-01 ( -13.79%)
   displ. norm   :     0.6590713 α      lambda       -0.5987393E-01
   maximum displ.:     0.2147347 α      in ANC's #40, #190, #144, ...

........................................................................
.............................. CYCLE    4 ..............................
........................................................................

 iter      E             dE          RMSdq      gap      omega  full diag
   1   -115.7439833 -0.115744E+03  0.544E-01    1.03       0.0  T
   2   -115.7359983  0.798504E-02  0.451E-01    0.79       1.0  T
   3   -115.7320081  0.399018E-02  0.414E-01    1.02       1.0  T
   4   -115.7417144 -0.970623E-02  0.294E-01    0.85       1.0  T
   5   -115.7458451 -0.413075E-02  0.225E-01    0.94       1.0  T
   6   -115.7477287 -0.188361E-02  0.198E-01    0.86       1.0  T
   7   -115.7519464 -0.421767E-02  0.918E-02    0.90       1.0  T
   8   -115.7527622 -0.815797E-03  0.428E-02    0.92       1.0  T
   9   -115.7528278 -0.655926E-04  0.258E-02    0.92       1.0  T
  10   -115.7528818 -0.540658E-04  0.161E-02    0.92       1.0  T
  11   -115.7529008 -0.189939E-04  0.848E-03    0.92       1.3  T
  12   -115.7528991  0.175771E-05  0.784E-03    0.92       1.5  T
  13   -115.7529060 -0.695862E-05  0.373E-03    0.92       3.1  T
  14   -115.7529056  0.444551E-06  0.305E-03    0.92       3.7  T
  15   -115.7529066 -0.100763E-05  0.144E-03    0.92       7.9  T
  16   -115.7529066 -0.380705E-07  0.905E-04    0.92      12.6  T
  17   -115.7529066 -0.204284E-08  0.681E-04    0.92      16.7  T
     SCC iter.                  ...        0 min,  0.078 sec
     gradient                   ...        0 min,  0.017 sec
 * total energy  :  -113.8952327 Eh     change       -0.4903202E-01 Eh
   gradient norm :     0.1495575 Eh/α   predicted    -0.4294083E-01 ( -12.42%)
   displ. norm   :     0.7081854 α      lambda       -0.5662662E-01
   maximum displ.:     0.2418668 α      in ANC's #55, #40, #144, ...

........................................................................
.............................. CYCLE    5 ..............................
........................................................................

 iter      E             dE          RMSdq      gap      omega  full diag
   1   -115.8043268 -0.115804E+03  0.411E-01    1.08       0.0  T
   2   -115.7989060  0.542076E-02  0.355E-01    0.90       1.0  T
   3   -115.7334299  0.654762E-01  0.615E-01    1.04       1.0  T
   4   -115.8022225 -0.687926E-01  0.261E-01    1.00       1.0  T
   5   -115.8022086  0.138799E-04  0.197E-01    0.94       1.0  T
   6   -115.8032347 -0.102615E-02  0.205E-01    1.01       1.0  T
   7   -115.8064279 -0.319317E-02  0.127E-01    1.00       1.0  T
   8   -115.8078344 -0.140649E-02  0.851E-02    1.02       1.0  T
   9   -115.8088748 -0.104043E-02  0.233E-02    1.03       1.0  T
  10   -115.8087179  0.156888E-03  0.308E-02    1.03       1.0  T
  11   -115.8089019 -0.183939E-03  0.718E-03    1.03       1.6  T
  12   -115.8089043 -0.243991E-05  0.451E-03    1.03       2.5  T
  13   -115.8089074 -0.309511E-05  0.160E-03    1.03       7.1  T
  14   -115.8089075 -0.427441E-07  0.103E-03    1.03      11.0  T
  15   -115.8089074  0.921084E-07  0.992E-04    1.03      11.5  T
  16   -115.8089075 -0.128909E-06  0.364E-04    1.03      31.3  T
     SCC iter.                  ...        0 min,  0.074 sec
     gradient                   ...        0 min,  0.017 sec
 * total energy  :  -113.9397862 Eh     change       -0.4455352E-01 Eh
   gradient norm :     0.1452418 Eh/α   predicted    -0.4251321E-01 (  -4.58%)
   displ. norm   :     0.6309980 α      lambda       -0.4241578E-01
   maximum displ.:     0.2500647 α      in ANC's #55, #59, #40, ...

........................................................................
.............................. CYCLE    6 ..............................
........................................................................

 iter      E             dE          RMSdq      gap      omega  full diag
   1   -115.8466824 -0.115847E+03  0.315E-01    1.02       0.0  T
   2   -115.8439548  0.272763E-02  0.276E-01    1.01       1.0  T
   3   -115.7965496  0.474052E-01  0.533E-01    1.01       1.0  T
   4   -115.8461828 -0.496332E-01  0.190E-01    0.98       1.0  T
   5   -115.8482717 -0.208889E-02  0.160E-01    1.04       1.0  T
   6   -115.8494194 -0.114772E-02  0.999E-02    1.01       1.0  T
   7   -115.8507963 -0.137684E-02  0.580E-02    1.03       1.0  T
   8   -115.8511371 -0.340791E-03  0.314E-02    1.03       1.0  T
   9   -115.8510803  0.567363E-04  0.319E-02    1.03       1.0  T
  10   -115.8512047 -0.124335E-03  0.182E-02    1.03       1.0  T
  11   -115.8512483 -0.436667E-04  0.880E-03    1.03       1.3  T
  12   -115.8512577 -0.937627E-05  0.287E-03    1.03       4.0  T
  13   -115.8512581 -0.415251E-06  0.159E-03    1.03       7.1  T
  14   -115.8512579  0.217969E-06  0.150E-03    1.03       7.6  T
  15   -115.8512578  0.801858E-07  0.147E-03    1.03       7.8  T
  16   -115.8512581 -0.244422E-06  0.830E-04    1.03      13.7  T
  17   -115.8512582 -0.113261E-06  0.244E-04    1.03      46.6  T
     SCC iter.                  ...        0 min,  0.078 sec
     gradient                   ...        0 min,  0.017 sec
 * total energy  :  -113.9691970 Eh     change       -0.2941073E-01 Eh
   gradient norm :     0.0976180 Eh/α   predicted    -0.2965200E-01 (   0.82%)
   displ. norm   :     0.6350747 α      lambda       -0.2777706E-01
   maximum displ.:     0.1777432 α      in ANC's #59, #36, #38, ...

........................................................................
.............................. CYCLE    7 ..............................
........................................................................

 iter      E             dE          RMSdq      gap      omega  full diag
   1   -115.8826136 -0.115883E+03  0.299E-01    0.97       0.0  T
   2   -115.8695733  0.130403E-01  0.320E-01    1.09       1.0  T
   3   -115.8774247 -0.785142E-02  0.238E-01    0.95       1.0  T
   4   -115.8845533 -0.712859E-02  0.117E-01    1.01       1.0  T
   5   -115.8844615  0.918128E-04  0.942E-02    1.03       1.0  T
   6   -115.8852696 -0.808158E-03  0.599E-02    1.03       1.0  T
   7   -115.8853855 -0.115890E-03  0.449E-02    1.03       1.0  T
   8   -115.8855441 -0.158562E-03  0.304E-02    1.03       1.0  T
   9   -115.8856588 -0.114766E-03  0.102E-02    1.03       1.1  T
  10   -115.8856553  0.356653E-05  0.810E-03    1.03       1.4  T
  11   -115.8856637 -0.839708E-05  0.349E-03    1.03       3.3  T
  12   -115.8856645 -0.804287E-06  0.197E-03    1.03       5.8  T
  13   -115.8856650 -0.510364E-06  0.728E-04    1.03      15.6  T
  14   -115.8856649  0.896031E-07  0.881E-04    1.03      12.9  T
     SCC iter.                  ...        0 min,  0.064 sec
     gradient                   ...        0 min,  0.017 sec
 * total energy  :  -113.9870721 Eh     change       -0.1787514E-01 Eh
   gradient norm :     0.0717639 Eh/α   predicted    -0.1949007E-01 (   9.03%)
   displ. norm   :     0.6348749 α      lambda       -0.1688201E-01
   maximum displ.:     0.2250708 α      in ANC's #48, #38, #55, ...

........................................................................
.............................. CYCLE    8 ..............................
........................................................................

 iter      E             dE          RMSdq      gap      omega  full diag
   1   -115.8947728 -0.115895E+03  0.214E-01    1.06       0.0  T
   2   -115.8947081  0.646539E-04  0.151E-01    1.09       1.0  T
   3   -115.8926603  0.204785E-02  0.150E-01    1.03       1.0  T
   4   -115.8847840  0.787626E-02  0.236E-01    1.09       1.0  T
   5   -115.8942244 -0.944041E-02  0.110E-01    1.07       1.0  T
   6   -115.8952942 -0.106979E-02  0.535E-02    1.06       1.0  T
   7   -115.8956724 -0.378165E-03  0.306E-02    1.07       1.0  T
   8   -115.8957700 -0.976202E-04  0.164E-02    1.07       1.0  T
   9   -115.8957269  0.430611E-04  0.202E-02    1.07       1.0  T
  10   -115.8957856 -0.586707E-04  0.758E-03    1.07       1.5  T
  11   -115.8957897 -0.407235E-05  0.547E-03    1.07       2.1  T
  12   -115.8957940 -0.427397E-05  0.227E-03    1.07       5.0  T
  13   -115.8957948 -0.833624E-06  0.562E-04    1.07      20.3  T
  14   -115.8957948  0.150914E-07  0.474E-04    1.07      24.1  T
     SCC iter.                  ...        0 min,  0.065 sec
     gradient                   ...        0 min,  0.017 sec
 * total energy  :  -113.9995125 Eh     change       -0.1244043E-01 Eh
   gradient norm :     0.0509593 Eh/α   predicted    -0.1184329E-01 (  -4.80%)
   displ. norm   :     0.6983006 α      lambda       -0.1153741E-01
   maximum displ.:     0.2559743 α      in ANC's #38, #48, #36, ...

........................................................................
.............................. CYCLE    9 ..............................
........................................................................

 iter      E             dE          RMSdq      gap      omega  full diag
   1   -115.8963591 -0.115896E+03  0.180E-01    1.12       0.0  T
   2   -115.8922676  0.409156E-02  0.178E-01    1.11       1.0  T
   3   -115.8928327 -0.565125E-03  0.162E-01    1.06       1.0  T
   4   -115.8954349 -0.260224E-02  0.907E-02    1.10       1.0  T
   5   -115.8961929 -0.757908E-03  0.555E-02    1.10       1.0  T
   6   -115.8966919 -0.499077E-03  0.253E-02    1.11       1.0  T
   7   -115.8967571 -0.651464E-04  0.135E-02    1.10       1.0  T
   8   -115.8967456  0.114512E-04  0.131E-02    1.10       1.0  T
   9   -115.8967650 -0.193337E-04  0.564E-03    1.10       2.0  T
  10   -115.8967641  0.825427E-06  0.523E-03    1.10       2.2  T
  11   -115.8967677 -0.356090E-05  0.183E-03    1.10       6.2  T
  12   -115.8967678 -0.137592E-06  0.921E-04    1.10      12.4  T
  13   -115.8967679 -0.681030E-07  0.439E-04    1.10      26.0  T
     SCC iter.                  ...        0 min,  0.060 sec
     gradient                   ...        0 min,  0.017 sec
 * total energy  :  -114.0083835 Eh     change       -0.8870972E-02 Eh
   gradient norm :     0.0332528 Eh/α   predicted    -0.8581668E-02 (  -3.26%)
   displ. norm   :     0.7119594 α      lambda       -0.9166249E-02
   maximum displ.:     0.2480651 α      in ANC's #38, #48, #11, ...

........................................................................
.............................. CYCLE   10 ..............................
........................................................................

 iter      E             dE          RMSdq      gap      omega  full diag
   1   -115.9123796 -0.115912E+03  0.178E-01    1.15       0.0  T
   2   -115.8986636  0.137160E-01  0.277E-01    1.16       1.0  T
   3   -115.9107024 -0.120388E-01  0.140E-01    1.11       1.0  T
   4   -115.9113831 -0.680706E-03  0.975E-02    1.13       1.0  T
   5   -115.9118891 -0.506016E-03  0.778E-02    1.13       1.0  T
   6   -115.9123511 -0.462017E-03  0.533E-02    1.13       1.0  T
   7   -115.9126623 -0.311193E-03  0.350E-02    1.14       1.0  T
   8   -115.9128400 -0.177656E-03  0.122E-02    1.14       1.0  T
   9   -115.9128336  0.638452E-05  0.110E-02    1.14       1.0  T
  10   -115.9128455 -0.119349E-04  0.788E-03    1.14       1.4  T
  11   -115.9128526 -0.710951E-05  0.377E-03    1.14       3.0  T
  12   -115.9128534 -0.807268E-06  0.228E-03    1.14       5.0  T
  13   -115.9128542 -0.732857E-06  0.599E-04    1.14      19.0  T
  14   -115.9128542  0.215767E-07  0.512E-04    1.14      22.3  T
     SCC iter.                  ...        0 min,  0.064 sec
     gradient                   ...        0 min,  0.017 sec
 * total energy  :  -114.0147886 Eh     change       -0.6405082E-02 Eh
   gradient norm :     0.0528176 Eh/α   predicted    -0.6906260E-02 (   7.82%)
   displ. norm   :     0.6840177 α      lambda       -0.6966078E-02
   maximum displ.:     0.2093130 α      in ANC's #38, #11, #10, ...

........................................................................
.............................. CYCLE   11 ..............................
........................................................................

 iter      E             dE          RMSdq      gap      omega  full diag
   1   -115.9078738 -0.115908E+03  0.170E-01    1.16       0.0  T
   2   -115.9016890  0.618481E-02  0.199E-01    1.17       1.0  T
   3   -115.9057183 -0.402932E-02  0.142E-01    1.12       1.0  T
   4   -115.9066558 -0.937557E-03  0.993E-02    1.15       1.0  T
   5   -115.9068382 -0.182315E-03  0.816E-02    1.14       1.0  T
   6   -115.9076976 -0.859448E-03  0.514E-02    1.15       1.0  T
   7   -115.9078701 -0.172524E-03  0.397E-02    1.16       1.0  T
   8   -115.9080818 -0.211672E-03  0.201E-02    1.16       1.0  T
   9   -115.9081333 -0.514580E-04  0.651E-03    1.16       1.8  T
  10   -115.9081385 -0.521969E-05  0.294E-03    1.16       3.9  T
  11   -115.9081388 -0.352328E-06  0.178E-03    1.16       6.4  T
  12   -115.9081391 -0.254561E-06  0.909E-04    1.16      12.5  T
  13   -115.9081392 -0.865613E-07  0.400E-04    1.16      28.5  T
     SCC iter.                  ...        0 min,  0.059 sec
     gradient                   ...        0 min,  0.017 sec
 * total energy  :  -114.0201819 Eh     change       -0.5393351E-02 Eh
   gradient norm :     0.0332434 Eh/α   predicted    -0.5112694E-02 (  -5.20%)
   displ. norm   :     0.6982167 α      lambda       -0.5871644E-02
   maximum displ.:     0.2334325 α      in ANC's #11, #3, #4, ...

........................................................................
.............................. CYCLE   12 ..............................
........................................................................

 iter      E             dE          RMSdq      gap      omega  full diag
   1   -115.9235530 -0.115924E+03  0.168E-01    1.18       0.0  T
   2   -115.9221396  0.141344E-02  0.137E-01    1.17       1.0  T
   3   -115.9211571  0.982468E-03  0.145E-01    1.13       1.0  T
   4   -115.9228773 -0.172021E-02  0.827E-02    1.17       1.0  T
   5   -115.9230646 -0.187302E-03  0.634E-02    1.16       1.0  T
   6   -115.9237875 -0.722862E-03  0.186E-02    1.17       1.0  T
   7   -115.9238211 -0.336822E-04  0.111E-02    1.17       1.0  T
   8   -115.9238160  0.511519E-05  0.955E-03    1.17       1.2  T
   9   -115.9238162 -0.195559E-06  0.765E-03    1.17       1.5  T
  10   -115.9238230 -0.682486E-05  0.366E-03    1.17       3.1  T
  11   -115.9238230  0.642756E-07  0.257E-03    1.17       4.4  T
  12   -115.9238239 -0.915151E-06  0.710E-04    1.17      16.1  T
  13   -115.9238239 -0.196543E-07  0.432E-04    1.17      26.4  T
     SCC iter.                  ...        0 min,  0.060 sec
     gradient                   ...        0 min,  0.017 sec
 * total energy  :  -114.0247822 Eh     change       -0.4600308E-02 Eh
   gradient norm :     0.0286427 Eh/α   predicted    -0.4367058E-02 (  -5.07%)
   displ. norm   :     0.7347583 α      lambda       -0.5376795E-02
   maximum displ.:     0.2444929 α      in ANC's #11, #3, #4, ...

........................................................................
.............................. CYCLE   13 ..............................
........................................................................

 iter      E             dE          RMSdq      gap      omega  full diag
   1   -115.9247429 -0.115925E+03  0.187E-01    1.17       0.0  T
   2   -115.9243660  0.376914E-03  0.121E-01    1.19       1.0  T
   3   -115.9224438  0.192214E-02  0.127E-01    1.12       1.0  T
   4   -115.9240972 -0.165338E-02  0.680E-02    1.17       1.0  T
   5   -115.9245300 -0.432841E-03  0.389E-02    1.17       1.0  T
   6   -115.9248038 -0.273730E-03  0.144E-02    1.18       1.0  T
   7   -115.9248050 -0.124159E-05  0.132E-02    1.18       1.0  T
   8   -115.9248269 -0.218657E-04  0.596E-03    1.18       1.9  T
   9   -115.9248312 -0.430185E-05  0.193E-03    1.18       5.9  T
  10   -115.9248313 -0.166658E-06  0.124E-03    1.18       9.2  T
  11   -115.9248313  0.407085E-07  0.900E-04    1.18      12.7  T
  12   -115.9248313  0.250520E-07  0.757E-04    1.18      15.1  T
     SCC iter.                  ...        0 min,  0.055 sec
     gradient                   ...        0 min,  0.017 sec
 * total energy  :  -114.0290695 Eh     change       -0.4287270E-02 Eh
   gradient norm :     0.0203598 Eh/α   predicted    -0.4139791E-02 (  -3.44%)
   displ. norm   :     0.7272111 α      lambda       -0.4339494E-02
   maximum displ.:     0.2660438 α      in ANC's #3, #11, #4, ...

........................................................................
.............................. CYCLE   14 ..............................
........................................................................

 iter      E             dE          RMSdq      gap      omega  full diag
   1   -115.9304318 -0.115930E+03  0.186E-01    1.20       0.0  T
   2   -115.9303947  0.370691E-04  0.114E-01    1.21       1.0  T
   3   -115.9293979  0.996808E-03  0.942E-02    1.17       1.0  T
   4   -115.9304362 -0.103833E-02  0.241E-02    1.21       1.0  T
   5   -115.9304565 -0.202890E-04  0.185E-02    1.20       1.0  T
   6   -115.9304995 -0.430372E-04  0.115E-02    1.21       1.0  T
   7   -115.9305098 -0.102546E-04  0.751E-03    1.20       1.5  T
   8   -115.9305096  0.210291E-06  0.528E-03    1.21       2.2  T
   9   -115.9305133 -0.370526E-05  0.182E-03    1.21       6.3  T
  10   -115.9305133 -0.528201E-07  0.111E-03    1.20      10.2  T
  11   -115.9305134 -0.689431E-07  0.507E-04    1.20      22.5  T
  12   -115.9305134 -0.129738E-07  0.247E-04    1.20      46.2  T
     SCC iter.                  ...        0 min,  0.055 sec
     gradient                   ...        0 min,  0.017 sec
 * total energy  :  -114.0327328 Eh     change       -0.3663262E-02 Eh
   gradient norm :     0.0182132 Eh/α   predicted    -0.3317191E-02 (  -9.45%)
   displ. norm   :     0.7567370 α      lambda       -0.3917779E-02
   maximum displ.:     0.2862317 α      in ANC's #3, #11, #5, ...

........................................................................
.............................. CYCLE   15 ..............................
........................................................................

 iter      E             dE          RMSdq      gap      omega  full diag
   1   -115.9314382 -0.115931E+03  0.198E-01    1.23       0.0  T
   2   -115.9313558  0.824313E-04  0.120E-01    1.25       1.0  T
   3   -115.9280416  0.331423E-02  0.135E-01    1.19       1.0  T
   4   -115.9313250 -0.328347E-02  0.340E-02    1.23       1.0  T
   5   -115.9314829 -0.157912E-03  0.147E-02    1.23       1.0  T
   6   -115.9315068 -0.238535E-04  0.773E-03    1.23       1.5  T
   7   -115.9315067  0.605150E-07  0.548E-03    1.23       2.1  T
   8   -115.9315075 -0.734055E-06  0.323E-03    1.24       3.5  T
   9   -115.9315081 -0.617043E-06  0.172E-03    1.23       6.6  T
  10   -115.9315081 -0.347946E-07  0.105E-03    1.23      10.9  T
  11   -115.9315082 -0.775856E-07  0.492E-04    1.23      23.2  T
  12   -115.9315082 -0.152790E-07  0.259E-04    1.23      43.9  T
     SCC iter.                  ...        0 min,  0.055 sec
     gradient                   ...        0 min,  0.017 sec
 * total energy  :  -114.0358437 Eh     change       -0.3110981E-02 Eh
   gradient norm :     0.0205467 Eh/α   predicted    -0.3080660E-02 (  -0.97%)
   displ. norm   :     0.7387587 α      lambda       -0.3540982E-02
   maximum displ.:     0.2805656 α      in ANC's #3, #5, #4, ...

........................................................................
.............................. CYCLE   16 ..............................
........................................................................

 iter      E             dE          RMSdq      gap      omega  full diag
   1   -115.9343326 -0.115934E+03  0.181E-01    1.26       0.0  T
   2   -115.9341256  0.207003E-03  0.115E-01    1.28       1.0  T
   3   -115.9296145  0.451115E-02  0.160E-01    1.21       1.0  T
   4   -115.9343377 -0.472320E-02  0.269E-02    1.25       1.0  T
   5   -115.9343966 -0.589297E-04  0.135E-02    1.26       1.0  T
   6   -115.9343911  0.551543E-05  0.124E-02    1.26       1.0  T
   7   -115.9343953 -0.417778E-05  0.704E-03    1.27       1.6  T
   8   -115.9343979 -0.257077E-05  0.535E-03    1.26       2.1  T
   9   -115.9344000 -0.212983E-05  0.191E-03    1.26       6.0  T
  10   -115.9344001 -0.115131E-06  0.115E-03    1.26       9.9  T
  11   -115.9344001 -0.242052E-07  0.599E-04    1.26      19.0  T
  12   -115.9344001 -0.166110E-07  0.356E-04    1.26      32.0  T
     SCC iter.                  ...        0 min,  0.055 sec
     gradient                   ...        0 min,  0.017 sec
 * total energy  :  -114.0384802 Eh     change       -0.2636407E-02 Eh
   gradient norm :     0.0201191 Eh/α   predicted    -0.2736790E-02 (   3.81%)
   displ. norm   :     0.7195105 α      lambda       -0.2813127E-02
   maximum displ.:     0.2785502 α      in ANC's #3, #5, #4, ...

........................................................................
.............................. CYCLE   17 ..............................
........................................................................

 iter      E             dE          RMSdq      gap      omega  full diag
   1   -115.9312686 -0.115931E+03  0.166E-01    1.28       0.0  T
   2   -115.9311609  0.107718E-03  0.103E-01    1.29       1.0  T
   3   -115.9283097  0.285125E-02  0.129E-01    1.25       1.0  T
   4   -115.9311700 -0.286038E-02  0.377E-02    1.28       1.0  T
   5   -115.9313366 -0.166522E-03  0.166E-02    1.28       1.0  T
   6   -115.9313622 -0.256555E-04  0.102E-02    1.28       1.1  T
   7   -115.9313610  0.123249E-05  0.776E-03    1.28       1.5  T
   8   -115.9313636 -0.262988E-05  0.376E-03    1.28       3.0  T
   9   -115.9313645 -0.848508E-06  0.165E-03    1.28       6.9  T
  10   -115.9313645 -0.911969E-07  0.104E-03    1.28      10.9  T
  11   -115.9313646 -0.282982E-07  0.548E-04    1.28      20.8  T
  12   -115.9313646 -0.219310E-07  0.219E-04    1.28      52.1  T
     SCC iter.                  ...        0 min,  0.056 sec
     gradient                   ...        0 min,  0.018 sec
 * total energy  :  -114.0408537 Eh     change       -0.2373542E-02 Eh
   gradient norm :     0.0233358 Eh/α   predicted    -0.2134737E-02 ( -10.06%)
   displ. norm   :     0.7486578 α      lambda       -0.3096079E-02
   maximum displ.:     0.2818556 α      in ANC's #3, #5, #4, ...

........................................................................
.............................. CYCLE   18 ..............................
........................................................................

 iter      E             dE          RMSdq      gap      omega  full diag
   1   -115.9399077 -0.115940E+03  0.148E-01    1.29       0.0  T
   2   -115.9392822  0.625504E-03  0.106E-01    1.30       1.0  T
   3   -115.9360644  0.321778E-02  0.151E-01    1.26       1.0  T
   4   -115.9398568 -0.379237E-02  0.303E-02    1.28       1.0  T
   5   -115.9399883 -0.131543E-03  0.120E-02    1.29       1.0  T
   6   -115.9400058 -0.175451E-04  0.695E-03    1.29       1.6  T
   7   -115.9400074 -0.153314E-05  0.442E-03    1.29       2.6  T
   8   -115.9400067  0.691870E-06  0.345E-03    1.29       3.3  T
   9   -115.9400074 -0.700734E-06  0.189E-03    1.29       6.0  T
  10   -115.9400074 -0.610342E-07  0.168E-03    1.29       6.8  T
  11   -115.9400077 -0.207917E-06  0.513E-04    1.29      22.2  T
  12   -115.9400077 -0.853019E-08  0.279E-04    1.29      40.8  T
     SCC iter.                  ...        0 min,  0.055 sec
     gradient                   ...        0 min,  0.017 sec
 * total energy  :  -114.0436045 Eh     change       -0.2750797E-02 Eh
   gradient norm :     0.0213310 Eh/α   predicted    -0.2415708E-02 ( -12.18%)
   displ. norm   :     0.8168904 α      lambda       -0.3340915E-02
   maximum displ.:     0.3014089 α      in ANC's #3, #5, #4, ...

........................................................................
.............................. CYCLE   19 ..............................
........................................................................

 iter      E             dE          RMSdq      gap      omega  full diag
   1   -115.9410345 -0.115941E+03  0.153E-01    1.29       0.0  T
   2   -115.9408493  0.185178E-03  0.957E-02    1.30       1.0  T
   3   -115.9376622  0.318708E-02  0.137E-01    1.26       1.0  T
   4   -115.9410753 -0.341308E-02  0.204E-02    1.29       1.0  T
   5   -115.9411052 -0.298358E-04  0.700E-03    1.30       1.6  T
   6   -115.9411076 -0.248404E-05  0.520E-03    1.29       2.2  T
   7   -115.9411078 -0.169454E-06  0.391E-03    1.30       2.9  T
   8   -115.9411079 -0.131220E-06  0.275E-03    1.30       4.2  T
   9   -115.9411082 -0.294640E-06  0.141E-03    1.30       8.1  T
  10   -115.9411083 -0.596193E-07  0.936E-04    1.30      12.2  T
  11   -115.9411083 -0.277765E-07  0.407E-04    1.30      28.0  T
     SCC iter.                  ...        0 min,  0.050 sec
     gradient                   ...        0 min,  0.017 sec
 * total energy  :  -114.0466665 Eh     change       -0.3062057E-02 Eh
   gradient norm :     0.0255843 Eh/α   predicted    -0.2785182E-02 (  -9.04%)
   displ. norm   :     0.8426589 α      lambda       -0.3579338E-02
   maximum displ.:     0.2991591 α      in ANC's #3, #6, #5, ...

........................................................................
.............................. CYCLE   20 ..............................
........................................................................

 iter      E             dE          RMSdq      gap      omega  full diag
   1   -115.9464949 -0.115946E+03  0.146E-01    1.30       0.0  T
   2   -115.9465095 -0.145522E-04  0.846E-02    1.30       1.0  T
   3   -115.9462784  0.231040E-03  0.429E-02    1.29       1.0  T
   4   -115.9463539 -0.754453E-04  0.293E-02    1.30       1.0  T
   5   -115.9465215 -0.167644E-03  0.700E-03    1.30       1.6  T
   6   -115.9465261 -0.458086E-05  0.304E-03    1.30       3.7  T
   7   -115.9465265 -0.416267E-06  0.193E-03    1.30       5.9  T
   8   -115.9465266 -0.749814E-07  0.122E-03    1.30       9.4  T
   9   -115.9465266 -0.261408E-07  0.801E-04    1.30      14.2  T
  10   -115.9465266 -0.208606E-07  0.461E-04    1.30      24.7  T
     SCC iter.                  ...        0 min,  0.046 sec
     gradient                   ...        0 min,  0.017 sec
 * total energy  :  -114.0498185 Eh     change       -0.3151938E-02 Eh
   gradient norm :     0.0218875 Eh/α   predicted    -0.3060474E-02 (  -2.90%)
   displ. norm   :     0.8420229 α      lambda       -0.3413949E-02
   maximum displ.:     0.3055434 α      in ANC's #6, #3, #5, ...
 * RMSD in coord.:     1.1889340 α      energy gain  -0.3537756E+00 Eh

generating ANC from exact Hessian ...
Using Lindh-Hessian (1995)
 Shifting diagonal of input Hessian by   9.906173583846739E-003
 Lowest  eigenvalues of input Hessian
    0.000000    0.000000    0.000000    0.000000    0.000000    0.000000
    0.010000    0.010083    0.010318    0.010408    0.010563    0.010796
    0.010977    0.011173    0.011313    0.011516    0.011666    0.012295
 Highest eigenvalues
    2.038383    2.104119    2.157334    2.525332    2.758410    3.226514
 

........................................................................
.............................. CYCLE   21 ..............................
........................................................................

 iter      E             dE          RMSdq      gap      omega  full diag
   1   -115.9429528 -0.115943E+03  0.151E-01    1.30       0.0  T
   2   -115.9429324  0.204492E-04  0.901E-02    1.30       1.0  T
   3   -115.9398859  0.304641E-02  0.130E-01    1.31       1.0  T
   4   -115.9427219 -0.283595E-02  0.398E-02    1.29       1.0  T
   5   -115.9429855 -0.263570E-03  0.946E-03    1.30       1.2  T
   6   -115.9429927 -0.725329E-05  0.507E-03    1.30       2.2  T
   7   -115.9429964 -0.371327E-05  0.245E-03    1.30       4.6  T
   8   -115.9429966 -0.182596E-06  0.130E-03    1.30       8.7  T
   9   -115.9429966 -0.200794E-07  0.779E-04    1.30      14.6  T
  10   -115.9429967 -0.206355E-07  0.514E-04    1.30      22.2  T
     SCC iter.                  ...        0 min,  0.046 sec
     gradient                   ...        0 min,  0.017 sec
 * total energy  :  -114.0526928 Eh     change       -0.2874343E-02 Eh
   gradient norm :     0.0180635 Eh/α   predicted     0.0000000E+00 (-100.00%)
   displ. norm   :     0.2843560 α      lambda       -0.1667859E-02
   maximum displ.:     0.1077912 α      in ANC's #7, #1, #11, ...

........................................................................
.............................. CYCLE   22 ..............................
........................................................................

 iter      E             dE          RMSdq      gap      omega  full diag
   1   -115.9510819 -0.115951E+03  0.643E-02    1.32       0.0  T
   2   -115.9509083  0.173575E-03  0.505E-02    1.31       1.0  T
   3   -115.9499709  0.937393E-03  0.801E-02    1.32       1.0  T
   4   -115.9510904 -0.111946E-02  0.151E-02    1.31       1.0  T
   5   -115.9511073 -0.169085E-04  0.662E-03    1.31       1.7  T
   6   -115.9511130 -0.570767E-05  0.328E-03    1.31       3.5  T
   7   -115.9511132 -0.185676E-06  0.233E-03    1.31       4.9  T
   8   -115.9511135 -0.285198E-06  0.109E-03    1.31      10.5  T
   9   -115.9511135 -0.231192E-07  0.769E-04    1.31      14.8  T
  10   -115.9511135 -0.661537E-08  0.511E-04    1.31      22.3  T
     SCC iter.                  ...        0 min,  0.046 sec
     gradient                   ...        0 min,  0.017 sec
 * total energy  :  -114.0541033 Eh     change       -0.1410454E-02 Eh
   gradient norm :     0.0097218 Eh/α   predicted    -0.9013873E-03 ( -36.09%)
   displ. norm   :     0.7193084 α      lambda       -0.3194981E-02
   maximum displ.:     0.2733371 α      in ANC's #7, #1, #11, ...

........................................................................
.............................. CYCLE   23 ..............................
........................................................................

 iter      E             dE          RMSdq      gap      omega  full diag
   1   -115.9569029 -0.115957E+03  0.167E-01    1.34       0.0  T
   2   -115.9569235 -0.205642E-04  0.101E-01    1.33       1.0  T
   3   -115.9558519  0.107160E-02  0.788E-02    1.35       1.0  T
   4   -115.9565176 -0.665775E-03  0.495E-02    1.32       1.0  T
   5   -115.9569427 -0.425050E-03  0.991E-03    1.33       1.2  T
   6   -115.9569492 -0.656525E-05  0.528E-03    1.33       2.2  T
   7   -115.9569489  0.363105E-06  0.400E-03    1.33       2.9  T
   8   -115.9569491 -0.244755E-06  0.258E-03    1.33       4.4  T
   9   -115.9569498 -0.698434E-06  0.154E-03    1.33       7.4  T
  10   -115.9569499 -0.712663E-07  0.807E-04    1.33      14.1  T
  11   -115.9569499 -0.868413E-08  0.493E-04    1.33      23.1  T
     SCC iter.                  ...        0 min,  0.050 sec
     gradient                   ...        0 min,  0.017 sec
 * total energy  :  -114.0558227 Eh     change       -0.1719369E-02 Eh
   gradient norm :     0.0302372 Eh/α   predicted    -0.2424042E-02 (  40.98%)
   displ. norm   :     0.6138694 α      lambda       -0.3680141E-02
   maximum displ.:     0.2428527 α      in ANC's #7, #1, #11, ...

........................................................................
.............................. CYCLE   24 ..............................
........................................................................

 iter      E             dE          RMSdq      gap      omega  full diag
   1   -115.9567977 -0.115957E+03  0.145E-01    1.36       0.0  T
   2   -115.9551546  0.164308E-02  0.134E-01    1.33       1.0  T
   3   -115.9536370  0.151764E-02  0.150E-01    1.36       1.0  T
   4   -115.9569145 -0.327748E-02  0.463E-02    1.34       1.0  T
   5   -115.9571474 -0.232954E-03  0.155E-02    1.35       1.0  T
   6   -115.9571815 -0.340413E-04  0.779E-03    1.35       1.5  T
   7   -115.9571831 -0.160050E-05  0.451E-03    1.35       2.5  T
   8   -115.9571827  0.390421E-06  0.346E-03    1.35       3.3  T
   9   -115.9571836 -0.911005E-06  0.218E-03    1.35       5.2  T
  10   -115.9571837 -0.653737E-07  0.162E-03    1.35       7.0  T
  11   -115.9571838 -0.913650E-07  0.100E-03    1.35      11.4  T
  12   -115.9571838 -0.810950E-07  0.380E-04    1.35      30.0  T
  13   -115.9571838 -0.815574E-08  0.150E-04    1.35      76.0  T
     SCC iter.                  ...        0 min,  0.059 sec
     gradient                   ...        0 min,  0.017 sec
 * total energy  :  -114.0582025 Eh     change       -0.2379867E-02 Eh
   gradient norm :     0.0277628 Eh/α   predicted    -0.2533477E-02 (   6.45%)
   displ. norm   :     0.6134450 α      lambda       -0.2347488E-02
   maximum displ.:     0.2568916 α      in ANC's #7, #1, #2, ...

........................................................................
.............................. CYCLE   25 ..............................
........................................................................

 iter      E             dE          RMSdq      gap      omega  full diag
   1   -115.9552232 -0.115955E+03  0.114E-01    1.36       0.0  T
   2   -115.9550974  0.125801E-03  0.739E-02    1.35       1.0  T
   3   -115.9494639  0.563351E-02  0.179E-01    1.37       1.0  T
   4   -115.9551148 -0.565089E-02  0.282E-02    1.35       1.0  T
   5   -115.9552457 -0.130880E-03  0.997E-03    1.36       1.1  T
   6   -115.9552500 -0.435355E-05  0.639E-03    1.36       1.8  T
   7   -115.9552556 -0.559326E-05  0.304E-03    1.36       3.8  T
   8   -115.9552559 -0.275843E-06  0.163E-03    1.36       7.0  T
   9   -115.9552559 -0.321798E-08  0.120E-03    1.36       9.5  T
  10   -115.9552559 -0.887171E-08  0.961E-04    1.36      11.9  T
  11   -115.9552559 -0.384230E-07  0.474E-04    1.36      24.0  T
     SCC iter.                  ...        0 min,  0.051 sec
     gradient                   ...        0 min,  0.017 sec
 * total energy  :  -114.0603911 Eh     change       -0.2188593E-02 Eh
   gradient norm :     0.0233147 Eh/α   predicted    -0.1615441E-02 ( -26.19%)
   displ. norm   :     0.7314133 α      lambda       -0.3522732E-02
   maximum displ.:     0.2929270 α      in ANC's #7, #1, #2, ...

........................................................................
.............................. CYCLE   26 ..............................
........................................................................

 iter      E             dE          RMSdq      gap      omega  full diag
   1   -115.9573114 -0.115957E+03  0.145E-01    1.36       0.0  T
   2   -115.9571481  0.163261E-03  0.918E-02    1.36       1.0  T
   3   -115.9533127  0.383543E-02  0.148E-01    1.32       1.0  T
   4   -115.9573305 -0.401777E-02  0.200E-02    1.35       1.0  T
   5   -115.9573570 -0.264939E-04  0.946E-03    1.36       1.2  T
   6   -115.9573632 -0.621206E-05  0.485E-03    1.36       2.4  T
   7   -115.9573634 -0.214862E-06  0.381E-03    1.36       3.0  T
   8   -115.9573638 -0.455528E-06  0.214E-03    1.36       5.3  T
   9   -115.9573639 -0.464279E-07  0.166E-03    1.36       6.8  T
  10   -115.9573639 -0.553416E-07  0.120E-03    1.36       9.5  T
  11   -115.9573640 -0.470146E-07  0.511E-04    1.36      22.3  T
  12   -115.9573640 -0.209653E-08  0.303E-04    1.36      37.6  T
     SCC iter.                  ...        0 min,  0.055 sec
     gradient                   ...        0 min,  0.017 sec
 * total energy  :  -114.0631702 Eh     change       -0.2779094E-02 Eh
   gradient norm :     0.0109207 Eh/α   predicted    -0.2703637E-02 (  -2.72%)
   displ. norm   :     0.8893392 α      lambda       -0.2974119E-02
   maximum displ.:     0.3354369 α      in ANC's #1, #7, #2, ...

........................................................................
.............................. CYCLE   27 ..............................
........................................................................

 iter      E             dE          RMSdq      gap      omega  full diag
   1   -115.9392672 -0.115939E+03  0.196E-01    1.36       0.0  T
   2   -115.9392835 -0.163005E-04  0.120E-01    1.36       1.0  T
   3   -115.9349521  0.433137E-02  0.162E-01    1.37       1.0  T
   4   -115.9385046 -0.355250E-02  0.710E-02    1.34       1.0  T
   5   -115.9393502 -0.845587E-03  0.169E-02    1.36       1.0  T
   6   -115.9393563 -0.613737E-05  0.125E-02    1.36       1.0  T
   7   -115.9393408  0.154798E-04  0.123E-02    1.36       1.0  T
   8   -115.9393566 -0.158193E-04  0.741E-03    1.36       1.5  T
   9   -115.9393613 -0.461274E-05  0.350E-03    1.36       3.3  T
  10   -115.9393622 -0.945691E-06  0.220E-03    1.36       5.2  T
  11   -115.9393625 -0.281230E-06  0.112E-03    1.36      10.1  T
  12   -115.9393626 -0.109109E-06  0.342E-04    1.36      33.3  T
  13   -115.9393626 -0.403402E-08  0.249E-04    1.36      45.7  T
     SCC iter.                  ...        0 min,  0.059 sec
     gradient                   ...        0 min,  0.017 sec
 * total energy  :  -114.0651667 Eh     change       -0.1996475E-02 Eh
   gradient norm :     0.0381152 Eh/α   predicted    -0.2663213E-02 (  33.40%)
   displ. norm   :     0.5788273 α      lambda       -0.2271184E-02
   maximum displ.:     0.2597101 α      in ANC's #1, #2, #7, ...

........................................................................
.............................. CYCLE   28 ..............................
........................................................................

 iter      E             dE          RMSdq      gap      omega  full diag
   1   -115.9464166 -0.115946E+03  0.108E-01    1.37       0.0  T
   2   -115.9462287  0.187877E-03  0.723E-02    1.37       1.0  T
   3   -115.9435879  0.264081E-02  0.127E-01    1.33       1.0  T
   4   -115.9464368 -0.284892E-02  0.164E-02    1.36       1.0  T
   5   -115.9464562 -0.193868E-04  0.760E-03    1.37       1.5  T
   6   -115.9464592 -0.299455E-05  0.465E-03    1.36       2.5  T
   7   -115.9464603 -0.113907E-05  0.318E-03    1.37       3.6  T
   8   -115.9464605 -0.149237E-06  0.206E-03    1.37       5.5  T
   9   -115.9464605 -0.250865E-07  0.157E-03    1.37       7.3  T
  10   -115.9464606 -0.651612E-07  0.108E-03    1.37      10.5  T
  11   -115.9464606 -0.264078E-07  0.483E-04    1.36      23.6  T
  12   -115.9464606 -0.577880E-08  0.271E-04    1.36      42.0  T
     SCC iter.                  ...        0 min,  0.054 sec
     gradient                   ...        0 min,  0.017 sec
 * total energy  :  -114.0670883 Eh     change       -0.1921664E-02 Eh
   gradient norm :     0.0234970 Eh/α   predicted    -0.1516063E-02 ( -21.11%)
   displ. norm   :     0.6711027 α      lambda       -0.2491465E-02
   maximum displ.:     0.3195176 α      in ANC's #1, #2, #3, ...

........................................................................
.............................. CYCLE   29 ..............................
........................................................................

 iter      E             dE          RMSdq      gap      omega  full diag
   1   -115.9640742 -0.115964E+03  0.129E-01    1.38       0.0  T
   2   -115.9633053  0.768897E-03  0.101E-01    1.38       1.0  T
   3   -115.9607799  0.252545E-02  0.147E-01    1.34       1.0  T
   4   -115.9639598 -0.317992E-02  0.379E-02    1.37       1.0  T
   5   -115.9640889 -0.129041E-03  0.191E-02    1.37       1.0  T
   6   -115.9641412 -0.523013E-04  0.897E-03    1.37       1.3  T
   7   -115.9641436 -0.247872E-05  0.590E-03    1.37       1.9  T
   8   -115.9641451 -0.145461E-05  0.340E-03    1.38       3.4  T
   9   -115.9641450  0.635754E-07  0.305E-03    1.37       3.7  T
  10   -115.9641455 -0.453302E-06  0.188E-03    1.38       6.1  T
  11   -115.9641457 -0.192927E-06  0.857E-04    1.37      13.3  T
  12   -115.9641457 -0.384168E-08  0.749E-04    1.37      15.2  T
     SCC iter.                  ...        0 min,  0.055 sec
     gradient                   ...        0 min,  0.017 sec
 * total energy  :  -114.0691846 Eh     change       -0.2096295E-02 Eh
   gradient norm :     0.0117056 Eh/α   predicted    -0.1806792E-02 ( -13.81%)
   displ. norm   :     0.8435954 α      lambda       -0.2367890E-02
   maximum displ.:     0.3783264 α      in ANC's #1, #2, #7, ...

........................................................................
.............................. CYCLE   30 ..............................
........................................................................

 iter      E             dE          RMSdq      gap      omega  full diag
   1   -115.9630276 -0.115963E+03  0.176E-01    1.39       0.0  T
   2   -115.9625265  0.501066E-03  0.118E-01    1.39       1.0  T
   3   -115.9573474  0.517916E-02  0.191E-01    1.34       1.0  T
   4   -115.9628968 -0.554942E-02  0.439E-02    1.38       1.0  T
   5   -115.9630305 -0.133753E-03  0.209E-02    1.38       1.0  T
   6   -115.9630884 -0.578439E-04  0.101E-02    1.39       1.1  T
   7   -115.9630890 -0.576058E-06  0.784E-03    1.39       1.5  T
   8   -115.9630884  0.590066E-06  0.573E-03    1.39       2.0  T
   9   -115.9630903 -0.197150E-05  0.390E-03    1.39       2.9  T
  10   -115.9630916 -0.131348E-05  0.178E-03    1.39       6.4  T
  11   -115.9630918 -0.127386E-06  0.753E-04    1.39      15.1  T
  12   -115.9630918 -0.288884E-07  0.476E-04    1.39      23.9  T
     SCC iter.                  ...        0 min,  0.055 sec
     gradient                   ...        0 min,  0.017 sec
 * total energy  :  -114.0712866 Eh     change       -0.2101943E-02 Eh
   gradient norm :     0.0195351 Eh/α   predicted    -0.2026525E-02 (  -3.59%)
   displ. norm   :     0.7631594 α      lambda       -0.2543620E-02
   maximum displ.:     0.3479204 α      in ANC's #1, #2, #3, ...

........................................................................
.............................. CYCLE   31 ..............................
........................................................................

 iter      E             dE          RMSdq      gap      omega  full diag
   1   -115.9770655 -0.115977E+03  0.157E-01    1.41       0.0  T
   2   -115.9756547  0.141080E-02  0.131E-01    1.42       1.0  T
   3   -115.9734784  0.217634E-02  0.166E-01    1.37       1.0  T
   4   -115.9769305 -0.345213E-02  0.558E-02    1.41       1.0  T
   5   -115.9770132 -0.826571E-04  0.326E-02    1.40       1.0  T
   6   -115.9771936 -0.180370E-03  0.109E-02    1.41       1.0  T
   7   -115.9771979 -0.437169E-05  0.694E-03    1.41       1.6  T
   8   -115.9772006 -0.263272E-05  0.355E-03    1.41       3.2  T
   9   -115.9772001  0.441044E-06  0.326E-03    1.41       3.5  T
  10   -115.9772006 -0.460272E-06  0.221E-03    1.41       5.2  T
  11   -115.9772010 -0.410478E-06  0.763E-04    1.41      14.9  T
  12   -115.9772010  0.265977E-08  0.581E-04    1.41      19.6  T
     SCC iter.                  ...        0 min,  0.055 sec
     gradient                   ...        0 min,  0.017 sec
 * total energy  :  -114.0732526 Eh     change       -0.1965997E-02 Eh
   gradient norm :     0.0170460 Eh/α   predicted    -0.2012528E-02 (   2.37%)
   displ. norm   :     0.8546800 α      lambda       -0.2224387E-02
   maximum displ.:     0.3934874 α      in ANC's #1, #2, #3, ...

........................................................................
.............................. CYCLE   32 ..............................
........................................................................

 iter      E             dE          RMSdq      gap      omega  full diag
   1   -115.9656610 -0.115966E+03  0.185E-01    1.42       0.0  T
   2   -115.9645233  0.113769E-02  0.137E-01    1.43       1.0  T
   3   -115.9603122  0.421114E-02  0.195E-01    1.36       1.0  T
   4   -115.9654739 -0.516168E-02  0.603E-02    1.41       1.0  T
   5   -115.9656388 -0.164897E-03  0.311E-02    1.41       1.0  T
   6   -115.9657887 -0.149949E-03  0.130E-02    1.42       1.0  T
   7   -115.9657904 -0.165254E-05  0.956E-03    1.42       1.2  T
   8   -115.9657937 -0.331086E-05  0.563E-03    1.42       2.0  T
   9   -115.9657940 -0.311342E-06  0.465E-03    1.42       2.5  T
  10   -115.9657961 -0.213212E-05  0.207E-03    1.42       5.5  T
  11   -115.9657963 -0.205327E-06  0.931E-04    1.42      12.2  T
  12   -115.9657964 -0.324382E-07  0.532E-04    1.42      21.4  T
     SCC iter.                  ...        0 min,  0.055 sec
     gradient                   ...        0 min,  0.017 sec
 * total energy  :  -114.0750190 Eh     change       -0.1766436E-02 Eh
   gradient norm :     0.0312683 Eh/α   predicted    -0.1924628E-02 (   8.96%)
   displ. norm   :     0.6760342 α      lambda       -0.2013745E-02
   maximum displ.:     0.3331698 α      in ANC's #2, #1, #3, ...

........................................................................
.............................. CYCLE   33 ..............................
........................................................................

 iter      E             dE          RMSdq      gap      omega  full diag
   1   -115.9618677 -0.115962E+03  0.124E-01    1.43       0.0  T
   2   -115.9611775  0.690122E-03  0.949E-02    1.44       1.0  T
   3   -115.9589963  0.218126E-02  0.144E-01    1.39       1.0  T
   4   -115.9618421 -0.284581E-02  0.384E-02    1.43       1.0  T
   5   -115.9618448 -0.273518E-05  0.232E-02    1.42       1.0  T
   6   -115.9619399 -0.950183E-04  0.733E-03    1.43       1.6  T
   7   -115.9619410 -0.119198E-05  0.492E-03    1.43       2.3  T
   8   -115.9619430 -0.192033E-05  0.210E-03    1.43       5.4  T
   9   -115.9619429  0.488005E-07  0.172E-03    1.43       6.6  T
  10   -115.9619432 -0.245277E-06  0.959E-04    1.43      11.9  T
  11   -115.9619432 -0.407348E-07  0.455E-04    1.43      25.1  T
     SCC iter.                  ...        0 min,  0.050 sec
     gradient                   ...        0 min,  0.017 sec
 * total energy  :  -114.0767148 Eh     change       -0.1695786E-02 Eh
   gradient norm :     0.0235766 Eh/α   predicted    -0.1467036E-02 ( -13.49%)
   displ. norm   :     0.7063911 α      lambda       -0.2048013E-02
   maximum displ.:     0.3638705 α      in ANC's #2, #3, #1, ...

........................................................................
.............................. CYCLE   34 ..............................
........................................................................

 iter      E             dE          RMSdq      gap      omega  full diag
   1   -115.9698164 -0.115970E+03  0.131E-01    1.44       0.0  T
   2   -115.9691929  0.623467E-03  0.974E-02    1.44       1.0  T
   3   -115.9668561  0.233685E-02  0.150E-01    1.40       1.0  T
   4   -115.9696986 -0.284256E-02  0.461E-02    1.44       1.0  T
   5   -115.9697289 -0.302339E-04  0.296E-02    1.43       1.0  T
   6   -115.9698924 -0.163563E-03  0.683E-03    1.44       1.7  T
   7   -115.9698938 -0.134875E-05  0.427E-03    1.44       2.7  T
   8   -115.9698948 -0.101838E-05  0.198E-03    1.44       5.7  T
   9   -115.9698947  0.125937E-06  0.173E-03    1.44       6.6  T
  10   -115.9698949 -0.208912E-06  0.101E-03    1.44      11.3  T
  11   -115.9698949 -0.688222E-07  0.437E-04    1.44      26.1  T
  12   -115.9698950 -0.880429E-08  0.258E-04    1.44      44.2  T
     SCC iter.                  ...        0 min,  0.055 sec
     gradient                   ...        0 min,  0.017 sec
 * total energy  :  -114.0784546 Eh     change       -0.1739791E-02 Eh
   gradient norm :     0.0153855 Eh/α   predicted    -0.1534976E-02 ( -11.77%)
   displ. norm   :     0.8438668 α      lambda       -0.1973992E-02
   maximum displ.:     0.4276038 α      in ANC's #2, #1, #3, ...

........................................................................
.............................. CYCLE   35 ..............................
........................................................................

 iter      E             dE          RMSdq      gap      omega  full diag
   1   -115.9665495 -0.115967E+03  0.160E-01    1.45       0.0  T
   2   -115.9663346  0.214841E-03  0.103E-01    1.45       1.0  T
   3   -115.9635564  0.277826E-02  0.163E-01    1.42       1.0  T
   4   -115.9662353 -0.267894E-02  0.458E-02    1.46       1.0  T
   5   -115.9664747 -0.239405E-03  0.265E-02    1.44       1.0  T
   6   -115.9665968 -0.122097E-03  0.869E-03    1.44       1.3  T
   7   -115.9665995 -0.269445E-05  0.538E-03    1.45       2.1  T
   8   -115.9665998 -0.230312E-06  0.353E-03    1.45       3.2  T
   9   -115.9666003 -0.595955E-06  0.243E-03    1.45       4.7  T
  10   -115.9666007 -0.360916E-06  0.140E-03    1.45       8.2  T
  11   -115.9666009 -0.145947E-06  0.534E-04    1.45      21.3  T
  12   -115.9666009 -0.431555E-08  0.382E-04    1.45      29.8  T
     SCC iter.                  ...        0 min,  0.055 sec
     gradient                   ...        0 min,  0.017 sec
 * total energy  :  -114.0802228 Eh     change       -0.1768187E-02 Eh
   gradient norm :     0.0182085 Eh/α   predicted    -0.1689848E-02 (  -4.43%)
   displ. norm   :     0.7680342 α      lambda       -0.2265697E-02
   maximum displ.:     0.3953753 α      in ANC's #2, #3, #1, ...

........................................................................
.............................. CYCLE   36 ..............................
........................................................................

 iter      E             dE          RMSdq      gap      omega  full diag
   1   -115.9875781 -0.115988E+03  0.142E-01    1.47       0.0  T
   2   -115.9871851  0.392934E-03  0.960E-02    1.45       1.0  T
   3   -115.9756766  0.115085E-01  0.251E-01    1.50       1.0  T
   4   -115.9862752 -0.105986E-01  0.116E-01    1.45       1.0  T
   5   -115.9875750 -0.129979E-02  0.252E-02    1.45       1.0  T
   6   -115.9876433 -0.682941E-04  0.151E-02    1.46       1.0  T
   7   -115.9876587 -0.153803E-04  0.936E-03    1.46       1.2  T
   8   -115.9876686 -0.996061E-05  0.375E-03    1.46       3.0  T
   9   -115.9876686  0.415862E-08  0.290E-03    1.46       3.9  T
  10   -115.9876689 -0.244833E-06  0.210E-03    1.46       5.4  T
  11   -115.9876692 -0.313970E-06  0.897E-04    1.46      12.7  T
  12   -115.9876692 -0.278242E-07  0.390E-04    1.46      29.2  T
     SCC iter.                  ...        0 min,  0.054 sec
     gradient                   ...        0 min,  0.017 sec
 * total energy  :  -114.0818017 Eh     change       -0.1578886E-02 Eh
   gradient norm :     0.0200099 Eh/α   predicted    -0.1801098E-02 (  14.07%)
   displ. norm   :     0.8357833 α      lambda       -0.2384737E-02
   maximum displ.:     0.4237385 α      in ANC's #3, #2, #1, ...

........................................................................
.............................. CYCLE   37 ..............................
........................................................................

 iter      E             dE          RMSdq      gap      omega  full diag
   1   -115.9796290 -0.115980E+03  0.183E-01    1.46       0.0  T
   2   -115.9794714  0.157644E-03  0.117E-01    1.45       1.0  T
   3   -115.9747626  0.470872E-02  0.184E-01    1.48       1.0  T
   4   -115.9776003 -0.283770E-02  0.109E-01    1.43       1.0  T
   5   -115.9797023 -0.210196E-02  0.226E-02    1.46       1.0  T
   6   -115.9797264 -0.241360E-04  0.137E-02    1.46       1.0  T
   7   -115.9797312 -0.478539E-05  0.933E-03    1.46       1.2  T
   8   -115.9797278  0.346908E-05  0.739E-03    1.46       1.5  T
   9   -115.9797347 -0.690630E-05  0.271E-03    1.46       4.2  T
  10   -115.9797347  0.969862E-09  0.226E-03    1.46       5.0  T
  11   -115.9797351 -0.479408E-06  0.694E-04    1.46      16.4  T
  12   -115.9797351  0.647509E-08  0.512E-04    1.46      22.2  T
     SCC iter.                  ...        0 min,  0.055 sec
     gradient                   ...        0 min,  0.017 sec
 * total energy  :  -114.0834419 Eh     change       -0.1640204E-02 Eh
   gradient norm :     0.0263896 Eh/α   predicted    -0.2025280E-02 (  23.48%)
   displ. norm   :     0.7369253 α      lambda       -0.1685602E-02
   maximum displ.:     0.3856992 α      in ANC's #2, #3, #1, ...

........................................................................
.............................. CYCLE   38 ..............................
........................................................................

 iter      E             dE          RMSdq      gap      omega  full diag
   1   -115.9658950 -0.115966E+03  0.123E-01    1.47       0.0  T
   2   -115.9651579  0.737078E-03  0.969E-02    1.45       1.0  T
   3   -115.9551092  0.100486E-01  0.240E-01    1.49       1.0  T
   4   -115.9649207 -0.981142E-02  0.107E-01    1.45       1.0  T
   5   -115.9658061 -0.885471E-03  0.325E-02    1.46       1.0  T
   6   -115.9659380 -0.131818E-03  0.191E-02    1.46       1.0  T
   7   -115.9659714 -0.334735E-04  0.955E-03    1.46       1.2  T
   8   -115.9659819 -0.105017E-04  0.308E-03    1.46       3.7  T
   9   -115.9659821 -0.188553E-06  0.186E-03    1.46       6.1  T
  10   -115.9659821 -0.247067E-07  0.162E-03    1.46       7.0  T
  11   -115.9659823 -0.177998E-06  0.753E-04    1.46      15.1  T
  12   -115.9659823 -0.249901E-07  0.310E-04    1.46      36.8  T
     SCC iter.                  ...        0 min,  0.054 sec
     gradient                   ...        0 min,  0.017 sec
 * total energy  :  -114.0848018 Eh     change       -0.1359922E-02 Eh
   gradient norm :     0.0253906 Eh/α   predicted    -0.1300495E-02 (  -4.37%)
   displ. norm   :     0.5842937 α      lambda       -0.2127692E-02
   maximum displ.:     0.3030367 α      in ANC's #3, #2, #1, ...

........................................................................
.............................. CYCLE   39 ..............................
........................................................................

 iter      E             dE          RMSdq      gap      omega  full diag
   1   -115.9735885 -0.115974E+03  0.105E-01    1.47       0.0  T
   2   -115.9722355  0.135299E-02  0.107E-01    1.45       1.0  T
   3   -115.9687505  0.348498E-02  0.166E-01    1.49       1.0  T
   4   -115.9731362 -0.438575E-02  0.787E-02    1.45       1.0  T
   5   -115.9735193 -0.383037E-03  0.349E-02    1.46       1.0  T
   6   -115.9737025 -0.183233E-03  0.188E-02    1.47       1.0  T
   7   -115.9737312 -0.287081E-04  0.919E-03    1.47       1.2  T
   8   -115.9737403 -0.910692E-05  0.222E-03    1.47       5.1  T
   9   -115.9737402  0.133235E-06  0.177E-03    1.47       6.5  T
  10   -115.9737405 -0.286432E-06  0.102E-03    1.47      11.2  T
  11   -115.9737405 -0.329206E-07  0.624E-04    1.47      18.3  T
  12   -115.9737405 -0.172231E-07  0.340E-04    1.47      33.5  T
     SCC iter.                  ...        0 min,  0.055 sec
     gradient                   ...        0 min,  0.017 sec
 * total energy  :  -114.0861582 Eh     change       -0.1356421E-02 Eh
   gradient norm :     0.0166468 Eh/α   predicted    -0.1427048E-02 (   5.21%)
   displ. norm   :     0.7965235 α      lambda       -0.1928649E-02
   maximum displ.:     0.4137510 α      in ANC's #3, #2, #1, ...

........................................................................
.............................. CYCLE   40 ..............................
........................................................................

 iter      E             dE          RMSdq      gap      omega  full diag
   1   -115.9723431 -0.115972E+03  0.158E-01    1.47       0.0  T
   2   -115.9693636  0.297956E-02  0.158E-01    1.44       1.0  T
   3   -115.9616098  0.775381E-02  0.249E-01    1.48       1.0  T
   4   -115.9708434 -0.923367E-02  0.135E-01    1.45       1.0  T
   5   -115.9722270 -0.138355E-02  0.502E-02    1.46       1.0  T
   6   -115.9725297 -0.302715E-03  0.296E-02    1.46       1.0  T
   7   -115.9725968 -0.671509E-04  0.163E-02    1.46       1.0  T
   8   -115.9726251 -0.282744E-04  0.504E-03    1.47       2.3  T
   9   -115.9726250  0.142294E-06  0.382E-03    1.47       3.0  T
  10   -115.9726254 -0.453591E-06  0.285E-03    1.47       4.0  T
  11   -115.9726260 -0.591786E-06  0.129E-03    1.47       8.8  T
  12   -115.9726261 -0.796986E-07  0.538E-04    1.47      21.2  T
  13   -115.9726261 -0.140068E-07  0.388E-04    1.47      29.4  T
     SCC iter.                  ...        0 min,  0.059 sec
     gradient                   ...        0 min,  0.017 sec
 * total energy  :  -114.0877446 Eh     change       -0.1586415E-02 Eh
   gradient norm :     0.0164551 Eh/α   predicted    -0.1576140E-02 (  -0.65%)
   displ. norm   :     0.7561063 α      lambda       -0.1648857E-02
   maximum displ.:     0.3830956 α      in ANC's #2, #3, #1, ...

........................................................................
.............................. CYCLE   41 ..............................
........................................................................

 iter      E             dE          RMSdq      gap      omega  full diag
   1   -115.9744977 -0.115974E+03  0.146E-01    1.47       0.0  T
   2   -115.9702364  0.426134E-02  0.176E-01    1.43       1.0  T
   3   -115.9696123  0.624078E-03  0.179E-01    1.47       1.0  T
   4   -115.9736400 -0.402775E-02  0.105E-01    1.45       1.0  T
   5   -115.9746503 -0.101031E-02  0.381E-02    1.46       1.0  T
   6   -115.9748234 -0.173023E-03  0.226E-02    1.46       1.0  T
   7   -115.9748660 -0.426075E-04  0.990E-03    1.46       1.2  T
   8   -115.9748739 -0.790028E-05  0.346E-03    1.46       3.3  T
   9   -115.9748741 -0.188181E-06  0.251E-03    1.46       4.5  T
  10   -115.9748742 -0.142358E-06  0.189E-03    1.46       6.0  T
  11   -115.9748745 -0.245861E-06  0.835E-04    1.46      13.6  T
  12   -115.9748745 -0.341377E-08  0.479E-04    1.46      23.8  T
     SCC iter.                  ...        0 min,  0.055 sec
     gradient                   ...        0 min,  0.017 sec
 * total energy  :  -114.0889881 Eh     change       -0.1243454E-02 Eh
   gradient norm :     0.0223707 Eh/α   predicted    -0.1295755E-02 (   4.21%)
   displ. norm   :     0.7153759 α      lambda       -0.1558798E-02
   maximum displ.:     0.3771312 α      in ANC's #2, #3, #1, ...

........................................................................
.............................. CYCLE   42 ..............................
........................................................................

 iter      E             dE          RMSdq      gap      omega  full diag
   1   -115.9746460 -0.115975E+03  0.122E-01    1.46       0.0  T
   2   -115.9713486  0.329736E-02  0.154E-01    1.44       1.0  T
   3   -115.9718160 -0.467417E-03  0.140E-01    1.46       1.0  T
   4   -115.9743703 -0.255428E-02  0.670E-02    1.45       1.0  T
   5   -115.9748340 -0.463658E-03  0.223E-02    1.46       1.0  T
   6   -115.9748937 -0.596844E-04  0.147E-02    1.46       1.0  T
   7   -115.9749086 -0.149339E-04  0.568E-03    1.46       2.0  T
   8   -115.9749100 -0.135873E-05  0.250E-03    1.46       4.6  T
   9   -115.9749103 -0.363170E-06  0.166E-03    1.46       6.9  T
  10   -115.9749104 -0.771296E-07  0.109E-03    1.46      10.4  T
  11   -115.9749105 -0.703949E-07  0.497E-04    1.46      22.9  T
  12   -115.9749105  0.368765E-08  0.353E-04    1.46      32.3  T
     SCC iter.                  ...        0 min,  0.055 sec
     gradient                   ...        0 min,  0.017 sec
 * total energy  :  -114.0902448 Eh     change       -0.1256771E-02 Eh
   gradient norm :     0.0205987 Eh/α   predicted    -0.1178271E-02 (  -6.25%)
   displ. norm   :     0.6183362 α      lambda       -0.1865599E-02
   maximum displ.:     0.3113418 α      in ANC's #2, #3, #1, ...
[...]
       103        2.0000           -0.5964277             -16.2296
       104        1.9994           -0.5900596             -16.0563
       105        1.9929           -0.5877612             -15.9938
       106        1.0077           -0.5784568             -15.7406 (HOMO)
       107                         -0.5220715             -14.2063 (LUMO)
       108                         -0.5057323             -13.7617
       109                         -0.5017738             -13.6540
       110                         -0.4399362             -11.9713
       111                         -0.4388511             -11.9417
       112                         -0.4375449             -11.9062
       113                         -0.4322308             -11.7616
       114                         -0.4295472             -11.6886
       115                         -0.4260316             -11.5929
       116                         -0.4247785             -11.5588
       117                         -0.4205070             -11.4426
       ...                                ...                  ...
       205                          1.6484416              44.8564
      -------------------------------------------------------------
                  HL-Gap            0.0563852 Eh            1.5343 eV
             Fermi-level           -0.5666660 Eh          -15.4198 eV

     #   Z          covCN         q      C6AA      α(0)
     1   8 O        0.856    -0.150    17.272     5.572
     2   6 C        1.712     0.454    21.768     7.553
     3   8 O        1.574    -0.118    16.147     5.422
     4  28 Ni       5.286    -0.236   254.526    30.899
     5   7 N        2.625    -0.025    21.734     6.924
     6   6 C        2.886     0.070    26.423     8.427
     7   6 C        2.967     0.004    27.938     8.670
     8   6 C        2.918    -0.020    28.506     8.755
     9   6 C        2.916    -0.017    28.433     8.744
    10   6 C        2.920    -0.000    28.035     8.683
    11   6 C        2.915    -0.014    28.364     8.733
    12   6 C        2.930    -0.020    28.512     8.757
    13   6 C        2.937     0.069    26.459     8.436
    14   6 C        2.921    -0.035    28.868     8.811
    15   6 C        2.919    -0.019    28.486     8.752
    16   6 C        2.919    -0.019    28.474     8.750
    17   6 C        2.919    -0.024    28.607     8.771
    18   6 C        2.918    -0.040    28.994     8.830
    19   6 C        3.757    -0.133    23.102     6.853
    20   6 C        3.567     0.125    19.305     6.397
    21   6 C        3.627    -0.039    21.721     6.714
    22   6 C        3.567     0.121    19.368     6.408
    23   6 C        3.757    -0.135    23.147     6.859
    24   7 N        2.640    -0.045    22.114     6.984
    25   6 C        2.904     0.068    26.478     8.437
    26   6 C        2.960     0.023    27.489     8.600
    27   6 C        3.759    -0.124    22.926     6.826
    28   6 C        2.924    -0.033    28.832     8.806
    29   6 C        2.914    -0.004    28.131     8.697
    30   6 C        2.921    -0.031    28.780     8.797
    31   6 C        2.970     0.022    27.519     8.605
    32   6 C        3.755    -0.113    22.713     6.795
    33   7 N        2.640    -0.053    22.267     7.008
    34   6 C        2.909     0.061    26.623     8.461
    35   6 C        2.969     0.019    27.571     8.613
    36   6 C        3.756    -0.114    22.740     6.799
    37   6 C        2.920    -0.032    28.802     8.801
    38   6 C        2.914    -0.007    28.196     8.707
    39   6 C        2.923    -0.035    28.863     8.810
    40   6 C        2.961     0.018    27.614     8.619
    41   6 C        3.758    -0.118    22.806     6.809
    42   1 H        0.924     0.101     1.774     2.083
    43   1 H        0.926     0.052     2.294     2.368
    44   1 H        0.926     0.073     2.051     2.240
    45   1 H        0.926     0.084     1.942     2.179
    46   1 H        0.926     0.079     1.992     2.207
    47   1 H        0.926     0.059     2.211     2.326
    48   1 H        0.926     0.052     2.298     2.370
    49   1 H        0.926     0.071     2.072     2.251
    50   1 H        0.926     0.076     2.025     2.226
    51   1 H        0.926     0.068     2.104     2.268
    52   1 H        0.926     0.045     2.390     2.417
    53   1 H        0.925     0.083     1.951     2.185
    54   1 H        0.925     0.089     1.888     2.149
    55   1 H        0.925     0.077     2.007     2.216
    56   1 H        0.925     0.068     2.111     2.272
    57   1 H        0.925     0.078     2.003     2.213
    58   1 H        0.925     0.092     1.857     2.131
    59   1 H        0.925     0.079     1.991     2.207
    60   1 H        0.925     0.077     2.013     2.219
    61   1 H        0.925     0.050     2.321     2.383
    62   1 H        0.925     0.086     1.918     2.166
    63   1 H        0.926     0.080     1.981     2.201
    64   1 H        0.926     0.086     1.915     2.164
    65   1 H        0.926     0.078     1.995     2.209
    66   1 H        0.924     0.073     2.056     2.242
    67   1 H        0.925     0.086     1.914     2.164
    68   1 H        0.922     0.103     1.756     2.072
    69   1 H        0.924     0.064     2.151     2.294
    70   1 H        0.925     0.080     1.984     2.203
    71   1 H        0.923     0.077     2.015     2.220
    72   1 H        0.926     0.077     2.008     2.216
    73   1 H        0.926     0.083     1.944     2.180
    74   1 H        0.926     0.076     2.018     2.221
    75   1 H        0.925     0.083     1.953     2.186
    76   1 H        0.925     0.043     2.409     2.427
    77   1 H        0.925     0.071     2.072     2.251

 Mol. C6AA /au·bohr⁶  :      71949.283631
 Mol. C8AA /au·bohr⁸  :    1926278.761333
 Mol. α(0) /au        :        428.219466


Wiberg/Mayer (AO) data.
largest (>0.10) Wiberg bond orders for each atom

 ---------------------------------------------------------------------------
     #   Z sym  total        # sym  WBO       # sym  WBO       # sym  WBO
 ---------------------------------------------------------------------------
     1   8 O    2.458 --     2 C    2.048     3 O    0.380
     2   6 C    3.937 --     1 O    2.048     3 O    1.837
     3   8 O    2.626 --     2 C    1.837     1 O    0.380     4 Ni   0.368
     4  28 Ni   3.437 --     5 N    0.679    24 N    0.595    33 N    0.594
                             3 O    0.368    21 C    0.154    20 C    0.136
                            22 C    0.132
     5   7 N    3.628 --     6 C    1.610    13 C    1.011     4 Ni   0.679
     6   6 C    3.953 --     5 N    1.610     7 C    1.154    42 H    0.912
     7   6 C    3.980 --     8 C    1.327    12 C    1.318     6 C    1.154
     8   6 C    3.988 --     9 C    1.478     7 C    1.327    43 H    0.962
     9   6 C    3.986 --     8 C    1.478    10 C    1.411    44 H    0.966
    10   6 C    3.972 --    11 C    1.414     9 C    1.411    45 H    0.965
    11   6 C    3.985 --    12 C    1.479    10 C    1.414    46 H    0.964
    12   6 C    3.982 --    11 C    1.479     7 C    1.318    47 H    0.966
    13   6 C    3.960 --    18 C    1.365    14 C    1.349     5 N    1.011
    14   6 C    3.986 --    15 C    1.457    13 C    1.349    48 H    0.966
                            17 C    0.105
    15   6 C    3.987 --    14 C    1.457    16 C    1.426    49 H    0.964
                            18 C    0.104
    16   6 C    3.964 --    17 C    1.430    15 C    1.426    50 H    0.966
    17   6 C    3.986 --    18 C    1.446    16 C    1.430    51 H    0.966
                            14 C    0.105
    18   6 C    3.982 --    17 C    1.446    13 C    1.365    52 H    0.955
                            15 C    0.104
    19   6 C    3.983 --    20 C    1.029    55 H    0.974    53 H    0.955
                            54 H    0.947
    20   6 C    3.956 --    33 N    1.383    21 C    1.210    19 C    1.029
                             4 Ni   0.136
    21   6 C    3.869 --    22 C    1.224    20 C    1.210    56 H    0.961
                             4 Ni   0.154
    22   6 C    3.956 --    24 N    1.363    21 C    1.224    23 C    1.028
                             4 Ni   0.132
    23   6 C    3.984 --    22 C    1.028    57 H    0.973    59 H    0.959
                            58 H    0.946
    24   7 N    3.538 --    22 C    1.363    25 C    1.202     4 Ni   0.595
    25   6 C    3.934 --    26 C    1.238    31 C    1.234    24 N    1.202
    26   6 C    3.943 --    28 C    1.438    25 C    1.238    27 C    1.040
    27   6 C    3.987 --    26 C    1.040    61 H    0.976    60 H    0.961
                            62 H    0.946
    28   6 C    3.977 --    26 C    1.438    29 C    1.420    63 H    0.959
    29   6 C    3.900 --    28 C    1.420    30 C    1.374    64 H    0.964
    30   6 C    3.971 --    31 C    1.477    29 C    1.374    65 H    0.961
    31   6 C    3.958 --    30 C    1.477    25 C    1.234    32 C    1.032
    32   6 C    3.990 --    31 C    1.032    67 H    0.971    66 H    0.955
                            68 H    0.866
    33   7 N    3.524 --    20 C    1.383    34 C    1.170     4 Ni   0.594
    34   6 C    3.933 --    40 C    1.251    35 C    1.250    33 N    1.170
    35   6 C    3.958 --    37 C    1.466    34 C    1.250    36 C    1.034
    36   6 C    3.991 --    35 C    1.034    70 H    0.975    69 H    0.958
                            71 H    0.918
    37   6 C    3.973 --    35 C    1.466    38 C    1.385    72 H    0.961
    38   6 C    3.903 --    39 C    1.419    37 C    1.385    73 H    0.965
    39   6 C    3.977 --    40 C    1.438    38 C    1.419    74 H    0.960
    40   6 C    3.946 --    39 C    1.438    34 C    1.251    41 C    1.038
    41   6 C    3.988 --    40 C    1.038    76 H    0.973    77 H    0.967
                            75 H    0.950
    42   1 H    0.988 --     6 C    0.912
    43   1 H    0.997 --     8 C    0.962
    44   1 H    0.994 --     9 C    0.966
    45   1 H    0.992 --    10 C    0.965
    46   1 H    0.992 --    11 C    0.964
    47   1 H    0.996 --    12 C    0.966
    48   1 H    0.997 --    14 C    0.966
    49   1 H    0.994 --    15 C    0.964
    50   1 H    0.994 --    16 C    0.966
    51   1 H    0.994 --    17 C    0.966
    52   1 H    0.998 --    18 C    0.955
    53   1 H    0.992 --    19 C    0.955
    54   1 H    0.990 --    19 C    0.947
    55   1 H    0.994 --    19 C    0.974
    56   1 H    0.994 --    21 C    0.961
    57   1 H    0.993 --    23 C    0.973
    58   1 H    0.987 --    23 C    0.946
    59   1 H    0.992 --    23 C    0.959
    60   1 H    0.990 --    27 C    0.961
    61   1 H    0.997 --    27 C    0.976
    62   1 H    0.987 --    27 C    0.946
    63   1 H    0.990 --    28 C    0.959
    64   1 H    0.992 --    29 C    0.964
    65   1 H    0.991 --    30 C    0.961
    66   1 H    0.993 --    32 C    0.955
    67   1 H    0.990 --    32 C    0.971
    68   1 H    0.989 --    32 C    0.866
    69   1 H    0.994 --    36 C    0.958
    70   1 H    0.992 --    36 C    0.975
    71   1 H    0.994 --    36 C    0.918
    72   1 H    0.991 --    37 C    0.961
    73   1 H    0.992 --    38 C    0.965
    74   1 H    0.990 --    39 C    0.960
    75   1 H    0.989 --    41 C    0.950
    76   1 H    0.998 --    41 C    0.973
    77   1 H    0.993 --    41 C    0.967
 ---------------------------------------------------------------------------

Topologies differ in total number of bonds
Writing topology from bond orders to xtbtopo.mol

molecular dipole:
                 x           y           z       tot (Debye)
 q only:       -2.034      11.250     -21.838
   full:       -2.076      11.166     -21.126      60.966
molecular quadrupole (traceless):
                xx          xy          yy          xz          yz          zz
 q only:     -114.995     -12.976     -72.890      48.077    -193.019     187.885
  q+dip:     -107.624     -11.918     -66.019      47.136    -181.827     173.644
   full:     -106.909     -12.963     -68.098      46.911    -186.169     175.007

           -------------------------------------------------
          |                Geometry Summary                 |
           -------------------------------------------------

      molecular mass/u    :      589.3738901
   center of mass at/Å    :       -0.5404991       2.8809424      -5.7230384
  moments of inertia/u·Å² :        0.4495776E+04   0.5761624E+04   0.7607115E+04
rotational constants/cm⁻¹ :        0.3749660E-02   0.2925847E-02   0.2216035E-02

 * 76 selected distances

     #   Z          #   Z                                           value/Å
     1   8 O        2   6 C                                       1.1357436
     2   6 C        3   8 O                                       1.1561664
     3   8 O        4  28 Ni                                      1.8604741
     4  28 Ni       5   7 N                                       1.8723077 (max)
     5   7 N        6   6 C                                       1.2982591
     7   6 C        8   6 C                                       1.4042667
     8   6 C        9   6 C                                       1.3795287
     9   6 C       10   6 C                                       1.3887827
    10   6 C       11   6 C                                       1.3884024
     7   6 C       12   6 C                                       1.4073414
    11   6 C       12   6 C                                       1.3785934
     5   7 N       13   6 C                                       1.4172394
    13   6 C       14   6 C                                       1.3971362
    14   6 C       15   6 C                                       1.3813315
    15   6 C       16   6 C                                       1.3872487
    16   6 C       17   6 C                                       1.3863929
    13   6 C       18   6 C                                       1.3937495
    17   6 C       18   6 C                                       1.3842933
    19   6 C       20   6 C                                       1.4991817
    20   6 C       21   6 C                                       1.4842743
    21   6 C       22   6 C                                       1.4824062
    22   6 C       23   6 C                                       1.5002153
     4  28 Ni      24   7 N                                       1.8357016
    22   6 C       24   7 N                                       1.3624954
    24   7 N       25   6 C                                       1.3588215
    25   6 C       26   6 C                                       1.4238033
    26   6 C       28   6 C                                       1.3861045
    28   6 C       29   6 C                                       1.3835558
    29   6 C       30   6 C                                       1.3909197
    25   6 C       31   6 C                                       1.4271106
    30   6 C       31   6 C                                       1.3786136
     4  28 Ni      33   7 N                                       1.8354994
    20   6 C       33   7 N                                       1.3582782
    33   7 N       34   6 C                                       1.3649251
    34   6 C       35   6 C                                       1.4211905
    35   6 C       37   6 C                                       1.3795539
    37   6 C       38   6 C                                       1.3900320
    38   6 C       39   6 C                                       1.3846243
    34   6 C       40   6 C                                       1.4197339
    39   6 C       40   6 C                                       1.3853053
     6   6 C       42   1 H                                       1.0905277
     8   6 C       43   1 H                                       1.0774820 (min)
     9   6 C       44   1 H                                       1.0787089
    10   6 C       45   1 H                                       1.0786736
    11   6 C       46   1 H                                       1.0785461
    12   6 C       47   1 H                                       1.0798410
    14   6 C       48   1 H                                       1.0794713
    15   6 C       49   1 H                                       1.0783367
    16   6 C       50   1 H                                       1.0779802
    17   6 C       51   1 H                                       1.0786417
    18   6 C       52   1 H                                       1.0805591
    19   6 C       53   1 H                                       1.0899080
    19   6 C       54   1 H                                       1.0895778
    19   6 C       55   1 H                                       1.0868221
    21   6 C       56   1 H                                       1.0848762
    23   6 C       57   1 H                                       1.0863291
    23   6 C       58   1 H                                       1.0891668
    23   6 C       59   1 H                                       1.0898566
    27   6 C       60   1 H                                       1.0888867
    27   6 C       61   1 H                                       1.0845303
    27   6 C       62   1 H                                       1.0898197
    28   6 C       63   1 H                                       1.0792669
    29   6 C       64   1 H                                       1.0781276
    30   6 C       65   1 H                                       1.0788314
    32   6 C       66   1 H                                       1.0909543
    32   6 C       67   1 H                                       1.0870567
    32   6 C       68   1 H                                       1.1079992
    36   6 C       69   1 H                                       1.0905843
    36   6 C       70   1 H                                       1.0863605
    36   6 C       71   1 H                                       1.0987904
    37   6 C       72   1 H                                       1.0787258
    38   6 C       73   1 H                                       1.0780886
    39   6 C       74   1 H                                       1.0791728
    41   6 C       75   1 H                                       1.0897746
    41   6 C       76   1 H                                       1.0867062
    41   6 C       77   1 H                                       1.0886510

 * 6 distinct bonds (by element types)

   Z      Z             #   av. dist./Å        max./Å        min./Å
   1 H    6 C          36     1.0849342     1.1079992     1.0774820
   6 C    6 C          28     1.4076319     1.5002153     1.3785934
   6 C    7 N           6     1.3600031     1.4172394     1.2982591
   6 C    8 O           2     1.1459550     1.1561664     1.1357436
   7 N   28 Ni          3     1.8478363     1.8723077     1.8354994
   8 O   28 Ni          1     1.8604741     1.8604741     1.8604741


optimized geometry written to: xtbopt.xyz


           -------------------------------------------------
          | TOTAL ENERGY             -114.105533494247 Eh   |
          | GRADIENT NORM               0.000194503369 Eh/α |
          | HOMO-LUMO GAP               1.534320037895 eV   |
           -------------------------------------------------

------------------------------------------------------------------------
 * finished run on 2026/01/28 at 10:27:50.405     
------------------------------------------------------------------------
 total:
 * wall-time:     0 d,  0 h,  0 min,  7.233 sec
 *  cpu-time:     0 d,  0 h,  0 min, 57.415 sec
 * ratio c/w:     7.937 speedup
 SCF:
 * wall-time:     0 d,  0 h,  0 min,  0.148 sec
 *  cpu-time:     0 d,  0 h,  0 min,  1.174 sec
 * ratio c/w:     7.933 speedup
 ANC optimizer:
 * wall-time:     0 d,  0 h,  0 min,  7.052 sec
 *  cpu-time:     0 d,  0 h,  0 min, 56.023 sec
 * ratio c/w:     7.944 speedup

