77
 energy: -11.376407674871 gnorm: 0.008791101955 xtb: 6.7.1 (edcfbbe)
O           -0.64134597331213       -0.69150930332896       -8.43226449572317
C           -0.34236357323330       -0.00459256797198       -7.46773631016899
O           -1.16554458188845        0.46341052574953       -6.58434863003496
Ni          -0.08686947197919        1.69614340556198       -5.47160598005826
N            1.12588995297385        1.81664025761989       -7.05535699418252
C            1.12628245040274        0.40085767451716       -7.30484578979605
C            2.08576016916557       -0.02162150920029       -8.40036204926486
C            1.80783056063180       -1.08616607217125       -9.26839385653260
C            2.75491271347620       -1.53841592609861      -10.18134237007940
C            4.00706060152073       -0.93551249766290      -10.23887301838273
C            4.30667455227693        0.11873305829121       -9.38083361643184
C            3.35592901512337        0.56807340375822       -8.46748423721859
C            0.37993359519571        2.74052426293833       -7.80064904938199
C           -0.07849073113245        3.91083150460512       -7.17030785464839
C           -0.93641062618979        4.77844179110378       -7.79755513774398
C           -1.36461019009212        4.51427291121326       -9.08365469834065
C           -0.93038507739173        3.37163473123197       -9.73003092035381
C           -0.07657194747778        2.49278609783466       -9.10482139609505
C           -2.17060544256199        1.50226921809930       -1.62202988755057
C           -1.11042941212138        1.82529966898561       -2.61440564626822
C            0.04383163711700        2.47058102790933       -2.17894370676123
C            1.04737037629256        3.00838443995186       -2.98402621005741
C            2.17464621192668        3.68062779803058       -2.28001419186979
N            1.07904942241365        2.88472154828925       -4.33554968150448
C            2.33922349292592        3.08149036693066       -4.99759169859126
C            2.68414790794515        4.30998904660397       -5.60326649911883
C            1.84487639958556        5.52650719266137       -5.43139075635131
C            3.88001763025088        4.40965797118526       -6.29284680457690
C            4.76951790828406        3.35439663360834       -6.33560232523015
C            4.47998751603186        2.18303799862240       -5.66593370222940
C            3.28126098442470        2.02615520288418       -4.99572617310777
C            3.03728276355791        0.79804695550192       -4.19246543674914
N           -1.37501726317643        1.65905206031755       -3.93414040352169
C           -2.70374659700357        1.83218751613946       -4.44649937615393
C           -3.18361096323326        3.14282024568247       -4.63917649890599
C           -2.33139185169948        4.31919223951872       -4.31960889157851
C           -4.46381012779267        3.33511613124631       -5.12132778267326
C           -5.27174284179456        2.25850161813582       -5.42175316188415
C           -4.80374498327415        0.97290165052504       -5.23420680211796
C           -3.53083536001368        0.73720408376881       -4.74966358761584
C           -3.06713659220075       -0.65575236755148       -4.51748781605275
H            1.48625786071954       -0.07340607615416       -6.37267540024629
H            0.83850533000540       -1.56570985701987       -9.22103398277406
H            2.52206623973581       -2.37171948268103      -10.83333211740586
H            4.75075896429993       -1.29446275672249      -10.94072232619500
H            5.28757069605207        0.57875773098069       -9.41300946983305
H            3.61120415914854        1.34623921098014       -7.76354184745668
H            0.18868131916427        4.05399356525404       -6.12998625337478
H           -1.29550282450014        5.66013028424426       -7.27872562610975
H           -2.05199874392820        5.19383242850442       -9.57577508978253
H           -1.27905332756876        3.16293483354469      -10.73374732815485
H            0.21912694386486        1.58378392338327       -9.60384034469896
H           -2.57796852136799        0.50829972736862       -1.81464274253690
H           -1.78603691509147        1.50422854236075       -0.59592525779927
H           -2.99080386128149        2.22298017574110       -1.68283425154761
H            0.14903243765542        2.61144227625294       -1.11710206421391
H            1.80473402967293        4.28757937360715       -1.45077383526178
H            2.72234261806931        4.34652563532740       -2.94789480010019
H            2.87588424016165        2.94791532885019       -1.87824236832948
H            1.06003796520729        5.36614571196571       -4.69126541916419
H            2.45191024882371        6.36395560029544       -5.07859629437690
H            1.39872478014112        5.83056798846954       -6.38307010835917
H            4.14106444495034        5.34592221278540       -6.75669075406175
H            5.71673029309314        3.46399180714304       -6.83927500508584
H            5.20827094210176        1.38872616302046       -5.63067345124309
H            3.27914993219380        0.97648606964484       -3.14369118364596
H            1.99238244055096        0.49203193975944       -4.23621163064286
H            3.65112940679270       -0.03888271169628       -4.53357057113023
H           -2.80702580406187        4.94600570232913       -3.56268854234389
H           -2.15274584814694        4.93346982011482       -5.20541046660649
H           -1.36047828741753        4.01113199183285       -3.92991767079667
H           -4.83250679416984        4.33882032650992       -5.24903806283880
H           -6.27136455754497        2.42477733413356       -5.79023847159092
H           -5.43860408746204        0.13452074124095       -5.46204038677751
H           -3.29637932637684       -1.28953288777437       -5.37585357532827
H           -3.55472831439236       -1.08505072117033       -3.64132940458452
H           -1.98817333653473       -0.69282193782029       -4.35703744164975
