77
 energy: -114.105533494247 gnorm: 0.000194503369 xtb: 6.7.1 (edcfbbe)
O            0.13304925925560       -1.58271200706808       -3.09559384781676
C           -0.00468654912429       -0.61005266463746       -3.66557283526004
O           -0.14502157188292        0.39116528049292       -4.22645525603763
Ni          -0.39973439469817        1.98851635700845       -5.14566923171783
N           -0.67389690460319        3.49933439058513       -6.21702324246496
C           -1.40630457346400        3.37826457380609       -7.28210424952607
C           -1.89227163981330        4.37835863369284       -8.19696629145382
C           -2.00627780314398        5.74795493198264       -7.90856877473428
C           -2.51898320854382        6.61628693559862       -8.84996763507377
C           -2.91270404932922        6.15173816645965      -10.09812446738418
C           -2.82214835025840        4.79818936484681      -10.39370218566699
C           -2.33698066985366        3.91781992549141       -9.45026097501899
C           -0.02330852786503        4.72997994192203       -5.95091549536373
C            0.92850100232562        5.18674065298186       -6.86602069153895
C            1.54703879312546        6.40534138300671       -6.66477567731392
C            1.23543668070435        7.17358373052117       -5.55249591056599
C            0.31175188011950        6.70919625027087       -4.62878833950657
C           -0.31228020729966        5.48805150057798       -4.81761928038685
C           -2.86293217355335        2.55599996257531       -2.52088975978210
C           -1.84200004120299        2.41137655977730       -3.60915770973268
C           -0.46464390052631        2.75712864986520       -3.17739925199441
C            0.94560258580653        2.70469449566338       -3.63125307094849
C            1.92419057040915        2.85602653799109       -2.50426165255126
N            1.37224118038015        2.39219248376362       -4.88692633465141
C            2.60848513783283        2.38345322416012       -5.45085894212976
C            3.62807357209113        3.34236782041542       -5.18982709524700
C            3.39192658341499        4.61438819371416       -4.44435053051872
C            4.87998462646610        3.14143913220513       -5.74985541001420
C            5.13950955683781        2.07604503634151       -6.59354281596231
C            4.10517575812967        1.22005651272572       -6.95699099689852
C            2.84020097607160        1.37167935597766       -6.43028003474182
C            1.74839521061424        0.44012842776470       -6.85944375769920
N           -2.20057528187777        1.88132172468727       -4.80723329085072
C           -3.44036673293764        1.70830213473849       -5.35129361657925
C           -3.66376677260745        0.49690993957764       -6.06009794492951
C           -2.56163013371848       -0.50392424823640       -6.20652005688806
C           -4.91846296310399        0.24039510729092       -6.57303671837342
C           -5.94131553362312        1.17392271958113       -6.45267279158230
C           -5.68692232534099        2.40347828877859       -5.86901074706671
C           -4.44755196534197        2.70869922630241       -5.33061349227625
C           -4.19340248948529        4.10128974320689       -4.85188638348163
H           -1.72787204617330        2.36707792922896       -7.53379114381449
H           -1.73119846346520        6.12958676726104       -6.93921038865445
H           -2.61270925150949        7.66413743704701       -8.61156150864968
H           -3.29927920267012        6.84079982664923      -10.83248833561176
H           -3.13945439396917        4.43261806201288      -11.35751548175060
H           -2.27207159637586        2.86517510792756       -9.68217075731366
H            1.16105190584737        4.58349514072360       -7.73047021180190
H            2.26949243295632        6.75868642250189       -7.38311948939123
H            1.71248397572431        8.12852969612835       -5.40234570064974
H            0.06868807408442        7.30200492670720       -3.76105246438995
H           -1.04524268176630        5.14332750597357       -4.10239956883577
H           -2.52362509403696        2.04199394925665       -1.62168579026569
H           -3.01673864739838        3.59995071662853       -2.24943074654470
H           -3.81522939421247        2.12802328125082       -2.82279696212818
H           -0.49328569285436        3.11711193198137       -2.15439007451616
H            2.91609549337775        2.53332744619152       -2.80774238480337
H            1.98048703840226        3.88420940619315       -2.14936043614270
H            1.61002242784658        2.24608224249568       -1.65747151949017
H            3.81234133326963        5.43993560747583       -5.01653670813686
H            2.33809780875899        4.81379604569467       -4.28345563886561
H            3.90970068576886        4.60716777361995       -3.48541122263522
H            5.65991826482482        3.85589524650182       -5.53520973274466
H            6.12562434925643        1.93871092034330       -7.00715610093979
H            4.29267596913376        0.42472760692216       -7.66138624004667
H            1.72327744814271       -0.44589689259634       -6.22343328272871
H            1.93132142453328        0.10390456022946       -7.87688348512452
H            0.75797762056524        0.93621848365266       -6.83435053337789
H           -2.46447307828842       -1.10542522125929       -5.30201413416558
H           -2.77458096614508       -1.17991660362419       -7.02984575170586
H           -1.60292920954365       -0.00334510197686       -6.40056443358619
H           -5.10567855393080       -0.69851327170026       -7.07007840950855
H           -6.92016386335995        0.95552813880954       -6.84819089468021
H           -6.46142548102892        3.15452213671735       -5.84270928851274
H           -4.67858577593833        4.27796317044842       -3.89220298396245
H           -3.13223802658542        4.31507815549050       -4.75620670503592
H           -4.62404944278544        4.80765708525310       -5.55952270891975
