77
 energy: -113.998650486546 gnorm: 0.293240296602 xtb: 6.7.1 (edcfbbe)
O           -0.64134597331213       -0.69150930332896       -8.43226449572317
C           -0.34236357323330       -0.00459256797198       -7.46773631016899
O           -1.16554458188845        0.46341052574953       -6.58434863003496
Ni          -0.08686947197919        1.69614340556198       -5.47160598005826
N            1.12588995297385        1.81664025761989       -7.05535699418252
C            1.12628245040274        0.40085767451716       -7.30484578979605
C            2.08576016916557       -0.02162150920029       -8.40036204926486
C            1.80783056063180       -1.08616607217125       -9.26839385653260
C            2.75491271347620       -1.53841592609861      -10.18134237007940
C            4.00706060152073       -0.93551249766290      -10.23887301838273
C            4.30667455227693        0.11873305829121       -9.38083361643184
C            3.35592901512337        0.56807340375822       -8.46748423721859
C            0.37993359519571        2.74052426293833       -7.80064904938199
C           -0.07849073113245        3.91083150460512       -7.17030785464839
C           -0.93641062618979        4.77844179110378       -7.79755513774398
C           -1.36461019009212        4.51427291121326       -9.08365469834065
C           -0.93038507739173        3.37163473123197       -9.73003092035381
C           -0.07657194747778        2.49278609783466       -9.10482139609505
C           -2.17060544256199        1.50226921809930       -1.62202988755057
C           -1.11042941212138        1.82529966898561       -2.61440564626822
C            0.04383163711700        2.47058102790933       -2.17894370676123
C            1.04737037629256        3.00838443995186       -2.98402621005741
C            2.17464621192668        3.68062779803058       -2.28001419186979
N            1.07904942241365        2.88472154828925       -4.33554968150448
C            2.33922349292592        3.08149036693066       -4.99759169859126
C            2.68414790794515        4.30998904660397       -5.60326649911883
C            1.84487639958556        5.52650719266137       -5.43139075635131
C            3.88001763025088        4.40965797118526       -6.29284680457690
C            4.76951790828406        3.35439663360834       -6.33560232523015
C            4.47998751603186        2.18303799862240       -5.66593370222940
C            3.28126098442470        2.02615520288418       -4.99572617310777
C            3.03728276355791        0.79804695550192       -4.19246543674914
N           -1.37501726317643        1.65905206031755       -3.93414040352169
C           -2.70374659700357        1.83218751613946       -4.44649937615393
C           -3.18361096323326        3.14282024568247       -4.63917649890599
C           -2.33139185169948        4.31919223951872       -4.31960889157851
C           -4.46381012779267        3.33511613124631       -5.12132778267326
C           -5.27174284179456        2.25850161813582       -5.42175316188415
C           -4.80374498327415        0.97290165052504       -5.23420680211796
C           -3.53083536001368        0.73720408376881       -4.74966358761584
C           -3.06713659220075       -0.65575236755148       -4.51748781605275
H            1.48625786071954       -0.07340607615416       -6.37267540024629
H            0.83850533000540       -1.56570985701987       -9.22103398277406
H            2.52206623973581       -2.37171948268103      -10.83333211740586
H            4.75075896429993       -1.29446275672249      -10.94072232619500
H            5.28757069605207        0.57875773098069       -9.41300946983305
H            3.61120415914854        1.34623921098014       -7.76354184745668
H            0.18868131916427        4.05399356525404       -6.12998625337478
H           -1.29550282450014        5.66013028424426       -7.27872562610975
H           -2.05199874392820        5.19383242850442       -9.57577508978253
H           -1.27905332756876        3.16293483354469      -10.73374732815485
H            0.21912694386486        1.58378392338327       -9.60384034469896
H           -2.57796852136799        0.50829972736862       -1.81464274253690
H           -1.78603691509147        1.50422854236075       -0.59592525779927
H           -2.99080386128149        2.22298017574110       -1.68283425154761
H            0.14903243765542        2.61144227625294       -1.11710206421391
H            1.80473402967293        4.28757937360715       -1.45077383526178
H            2.72234261806931        4.34652563532740       -2.94789480010019
H            2.87588424016165        2.94791532885019       -1.87824236832948
H            1.06003796520729        5.36614571196571       -4.69126541916419
H            2.45191024882371        6.36395560029544       -5.07859629437690
H            1.39872478014112        5.83056798846954       -6.38307010835917
H            4.14106444495034        5.34592221278540       -6.75669075406175
H            5.71673029309314        3.46399180714304       -6.83927500508584
H            5.20827094210176        1.38872616302046       -5.63067345124309
H            3.27914993219380        0.97648606964484       -3.14369118364596
H            1.99238244055096        0.49203193975944       -4.23621163064286
H            3.65112940679270       -0.03888271169628       -4.53357057113023
H           -2.80702580406187        4.94600570232913       -3.56268854234389
H           -2.15274584814694        4.93346982011482       -5.20541046660649
H           -1.36047828741753        4.01113199183285       -3.92991767079667
H           -4.83250679416984        4.33882032650992       -5.24903806283880
H           -6.27136455754497        2.42477733413356       -5.79023847159092
H           -5.43860408746204        0.13452074124095       -5.46204038677751
H           -3.29637932637684       -1.28953288777437       -5.37585357532827
H           -3.55472831439236       -1.08505072117033       -3.64132940458452
H           -1.98817333653473       -0.69282193782029       -4.35703744164975
77
 energy: -114.074077012083 gnorm: 0.137754974362 xtb: 6.7.1 (edcfbbe)
O           -0.69031169648219       -0.67498077480655       -8.38527861690476
C           -0.36375303262869        0.02046618279524       -7.44759670274915
O           -1.09177083882837        0.52918162565271       -6.52425739946941
Ni          -0.08273826895930        1.71361463810717       -5.44613627870201
N            1.05619137522524        1.81770865421839       -6.98332961318917
C            1.14333067240547        0.42712508684963       -7.30036399302861
C            2.08719550180183       -0.01976392070288       -8.41137635391107
C            1.81468066631965       -1.08175326967076       -9.26754350311469
C            2.75688919338510       -1.53877612896997      -10.17480222438258
C            4.00657908412941       -0.93636544596138      -10.23151216281438
C            4.29853233499821        0.11491669130802       -9.37754971834778
C            3.35326024949996        0.56937817199423       -8.47010748080508
C            0.36713619997904        2.71682699662827       -7.78434548884710
C           -0.08956286016372        3.89882135361523       -7.15797985960329
C           -0.93870737325616        4.77407340538559       -7.79390604780277
C           -1.36263108814881        4.51324715114437       -9.08857819417262
C           -0.92437175920065        3.36228791994934       -9.73454138063317
C           -0.06552606996388        2.48137305506142       -9.11034838495701
C           -2.16702618413105        1.50092854326955       -1.64342037251716
C           -1.11297311687908        1.83819060752751       -2.65636855036386
C            0.04583862363488        2.45977434170818       -2.19767589925538
C            1.05514975249987        2.97630830201058       -3.01517124518721
C            2.16930986813872        3.68103129072228       -2.29785748491326
N            1.05923458415991        2.83096206459315       -4.35628615619835
C            2.32598693508666        3.07164835514303       -5.00021889194917
C            2.67367390638057        4.30485696816192       -5.60180309373454
C            1.84088614472269        5.53166789847282       -5.42634846231736
C            3.87742589204922        4.41050780870520       -6.28726853490506
C            4.77134844196296        3.35843166368749       -6.33306386182870
C            4.48027179699323        2.18502449680039       -5.65678511114123
C            3.28303619127473        2.03050161436277       -4.97982443586790
C            3.03130062342292        0.78939353574626       -4.19092235102866
N           -1.33530906423673        1.66768446543772       -3.98005501668887
C           -2.67654917277494        1.82788089090001       -4.45833475181549
C           -3.17134430350041        3.14062703588250       -4.63198215239733
C           -2.32377618715336        4.32641006043217       -4.31510839442421
C           -4.45765262212937        3.33291525498231       -5.11521774821894
C           -5.27252935187464        2.25537071737399       -5.41918256601678
C           -4.79969803024973        0.96995087854591       -5.23434958309006
C           -3.51608735531605        0.73216753700743       -4.75623188527655
C           -3.05956432352068       -0.66170926773548       -4.51656048314268
H            1.48844832973469       -0.07566537885830       -6.37648530993382
H            0.84227166630301       -1.56055445231078       -9.22359516557409
H            2.52063761233657       -2.36526109079061      -10.83041463718556
H            4.74479349862798       -1.28981550677465      -10.93896128291947
H            5.27626107660008        0.57832904976144       -9.41002842041899
H            3.60593001045039        1.35158856393717       -7.76811751092193
H            0.18628756679729        4.05891495144776       -6.12669292568337
H           -1.29156522490225        5.65816456301010       -7.28014644463087
H           -2.04545775328980        5.19237226863886       -9.58062977433908
H           -1.27471933434599        3.15477643855885      -10.73467268478069
H            0.23162356855879        1.57721288747069       -9.61488558807104
H           -2.58123316291329        0.51056112721813       -1.82611732956957
H           -1.77983912181001        1.51022052338869       -0.62042592136465
H           -2.98827999955942        2.21856592326762       -1.69038212313980
H            0.14754329364957        2.60795038561681       -1.13101096834407
H            1.79675162729763        4.27539719087548       -1.46063933171830
H            2.72704274713089        4.34344972664675       -2.95521334872728
H            2.86855618545740        2.95294947801089       -1.88307375863876
H            1.05285990064813        5.37502864900525       -4.69246831741861
H            2.45688228976571        6.36147756789000       -5.07893789481597
H            1.40480090561364        5.84029725697667       -6.37717042569402
H            4.13628855187845        5.34770399100024       -6.75422144836212
H            5.71497087566271        3.46560862067827       -6.84420456183300
H            5.20486467478251        1.38547410795203       -5.63223209775443
H            3.27829422479182        0.96914299607053       -3.14409991135808
H            1.98038903692103        0.48709628677961       -4.23327083559733
H            3.65117580608232       -0.03705721730388       -4.53548948801838
H           -2.80895786940409        4.94956696621406       -3.56452834502227
H           -2.16284927058228        4.93670502285999       -5.20317047512238
H           -1.35370159429134        4.02272579534872       -3.92973260118450
H           -4.82551595717676        4.33883592366776       -5.25005085924985
H           -6.27116491769943        2.42268847032215       -5.79123999759440
H           -5.43754306473442        0.13089537815405       -5.46103088367551
H           -3.30149374371775       -1.28965142155053       -5.37302034830042
H           -3.55757418114777       -1.08682188871637       -3.64427005601368
H           -1.98313659567536       -0.69624960115804       -4.35430548226028
77
 energy: -114.098489794378 gnorm: 0.060344390162 xtb: 6.7.1 (edcfbbe)
O           -0.73491062911341       -0.65173715483331       -8.32146467658300
C           -0.40594286349157        0.04049936219994       -7.40510614128892
O           -1.05824628229336        0.57566761962748       -6.46235621836988
Ni          -0.08046749282856        1.72610539271759       -5.42723282720118
N            1.00691873526112        1.81586607034996       -6.93433682069390
C            1.16024080882884        0.45626514881104       -7.28925492799580
C            2.07612888785608       -0.00244448631001       -8.42130549290081
C            1.80903504121268       -1.06951248121133       -9.26423995267787
C            2.75202179844590       -1.53578570132441      -10.16410960766548
C            4.00053946202874       -0.93387668312324      -10.22282997326199
C            4.28689293402245        0.11591328630841       -9.37111346270740
C            3.34361006402797        0.58423837790434       -8.47332408522728
C            0.36780392906391        2.69863978220997       -7.77362819914984
C           -0.10693614940625        3.88216886690862       -7.14794819149919
C           -0.94468079726125        4.76275536850039       -7.79256362550442
C           -1.35711461066438        4.50248055564919       -9.09388928778230
C           -0.90921902600477        3.34701179902726       -9.73495632087578
C           -0.04322107705128        2.46948470831320       -9.11366530682895
C           -2.16900660780945        1.50352754950153       -1.67571582462818
C           -1.11293058699421        1.84274599768084       -2.69069720100482
C            0.05111628632800        2.44290693670923       -2.21509675998868
C            1.06431314381798        2.95147126942770       -3.04160628205477
C            2.16759880433744        3.67676501699333       -2.32182122090068
N            1.05002641691573        2.79216413472788       -4.36857376341586
C            2.32206286669335        3.06607957110182       -5.00261905460004
C            2.66745519450736        4.30133477920175       -5.59264224278700
C            1.83741989433749        5.53678409481883       -5.41885600961045
C            3.87516340150515        4.41108658400884       -6.27632756017781
C            4.77278459245561        3.36385680744672       -6.32520789969770
C            4.48105578128367        2.18861952338659       -5.64665830404737
C            3.28291535959865        2.03321034323550       -4.96911467135349
C            3.02441959208181        0.78038263164390       -4.19048978853821
N           -1.30446412777932        1.67357431735888       -4.01086507760231
C           -2.65289710403463        1.82337497407817       -4.47103799753043
C           -3.15629714530830        3.13520533911883       -4.62401075396248
C           -2.31771356979043        4.33505536333590       -4.30929495740459
C           -4.44674567494332        3.32649798349284       -5.10661612775473
C           -5.26729118789922        2.25071565172745       -5.41375954085633
C           -4.78980611462646        0.96751500810823       -5.23494222690534
C           -3.49791613782632        0.72918882967057       -4.76405229513284
C           -3.04911944311579       -0.66737321402583       -4.51698775757485
H            1.49687911545573       -0.08413125576777       -6.38430793621312
H            0.83796778001293       -1.54976558529270       -9.22556608002431
H            2.51514791513222       -2.35868901946122      -10.82089637301652
H            4.73524166921478       -1.28516647068875      -10.93283541701288
H            5.26336118918030        0.57930820139309       -9.40095802195530
H            3.59590352733168        1.37130810904671       -7.77738090852286
H            0.17893792896780        4.06568577193067       -6.12499666150877
H           -1.28705759587590        5.65439013872497       -7.28748813990785
H           -2.03027161417229        5.18344830396740       -9.59251179527893
H           -1.25856358299323        3.13842839750722      -10.73396308835316
H            0.25928704667495        1.57113641322834       -9.62679137870098
H           -2.58552371638893        0.51509981099291       -1.85433549071592
H           -1.76576966255464        1.51933060883889       -0.66266688460769
H           -2.98999911050909        2.21999450216405       -1.71125720380423
H            0.14832770784802        2.59844658485454       -1.14944382257144
H            1.77772869522469        4.25655281012880       -1.48425610794372
H            2.73202658530438        4.33845512134723       -2.97041925852254
H            2.86311050699083        2.95218126916472       -1.89453662707546
H            1.04252809587356        5.39046952913400       -4.69178789092929
H            2.46585911227797        6.35598284226731       -5.07327649445242
H            1.41384800339078        5.85469652962942       -6.37084165874107
H            4.12634629812960        5.34847148092361       -6.74897820560494
H            5.71012488382208        3.46825062115237       -6.84814837053550
H            5.20076481281425        1.38363396157966       -5.63333359164188
H            3.27371545051714        0.95269019200260       -3.14311593263377
H            1.96897408802415        0.47981793247941       -4.23216020174525
H            3.64795574577829       -0.03679556852028       -4.54237220585359
H           -2.81384692357078        4.95398474625219       -3.56424193683518
H           -2.18017126131000        4.94330105239004       -5.20100252925736
H           -1.34296225256917        4.04946792689340       -3.92742201438596
H           -4.81103225911859        4.33419274736059       -5.24934320212313
H           -6.26558112892424        2.41924094096807       -5.78665005319280
H           -5.42919729644007        0.12691973436822       -5.45863009215301
H           -3.30451077811687       -1.29281870627622       -5.37043711522432
H           -3.55981438310733       -1.08804902517648       -3.64964895753392
H           -1.97531396216999       -0.70736996434300       -4.34820690661523
77
 energy: -114.106524029558 gnorm: 0.052745032292 xtb: 6.7.1 (edcfbbe)
O           -0.78301756789727       -0.64728958766310       -8.26290182147675
C           -0.45713764060640        0.05416413108260       -7.36233155680080
O           -1.07466423895127        0.59115819450887       -6.41824132223285
Ni          -0.07606721924941        1.73267551898615       -5.41616169650325
N            1.00011044816101        1.81233566636600       -6.92189794580217
C            1.15920332868780        0.47322831095176       -7.27443799802509
C            2.05212644486421        0.02270313349521       -8.42312947892863
C            1.78646294611452       -1.05039196125118       -9.25844161300437
C            2.73470014756763       -1.52450267646389      -10.14952326825407
C            3.98435804981270       -0.92569321271830      -10.20814747645804
C            4.26670230511438        0.13106559903265       -9.36393084229953
C            3.31922823434059        0.61388538001450       -8.47915133589972
C            0.37550705213852        2.69000698321015       -7.76798987317961
C           -0.12132427034790        3.86800543824072       -7.14550799528638
C           -0.95023428038518        4.74609065684757       -7.80317301060574
C           -1.34341605219590        4.47989841684110       -9.10969488291287
C           -0.88043960211400        3.32469991822607       -9.74151246579714
C           -0.01235374603127        2.45545923160204       -9.11341025680810
C           -2.17596433864678        1.51040748059201       -1.70762247397427
C           -1.10919653130805        1.84590081168424       -2.70464258094526
C            0.06184142686822        2.42688135312943       -2.22420867263525
C            1.07712349019596        2.93531133753656       -3.05102090312869
C            2.17374690898254        3.66788183621998       -2.33860965432088
N            1.05936950424495        2.78446062389300       -4.36949137062100
C            2.32731733566674        3.06424315583097       -5.00511297196114
C            2.66578134323050        4.30256727328371       -5.58194823031351
C            1.83987497380930        5.54369441138431       -5.40709958518158
C            3.87508225219809        4.41460365687630       -6.26258096800634
C            4.77398928564401        3.36895869191511       -6.31400299247748
C            4.48456541902553        2.19092762173212       -5.63820144236794
C            3.28396933186922        2.03071924352835       -4.96554771143476
C            3.01730463198334        0.76959461188826       -4.19736282165199
N           -1.29412177231972        1.67751701792118       -4.01492466895335
C           -2.63747027556871        1.82171392334423       -4.48068982638282
C           -3.14106383089980        3.13268013066329       -4.61967645285502
C           -2.31669378726865        4.34598408694076       -4.30350220630050
C           -4.43287790542255        3.31985966373378       -5.09929810083813
C           -5.25376641138879        2.24414648361036       -5.40693814020409
C           -4.77237866944295        0.96198998161401       -5.23659818765622
C           -3.47734029880319        0.72543973735305       -4.77203005840402
C           -3.03610603990177       -0.67403798729012       -4.51786950967824
H            1.49851023282482       -0.09102396883047       -6.38662102187095
H            0.81733075326861       -1.53095928500427       -9.22501381384528
H            2.49975652028369       -2.35088823314980      -10.80133047880350
H            4.71936475814178       -1.27911933887080      -10.91577059060406
H            5.24488128059531        0.58954080270099       -9.38675618591473
H            3.56968969773486        1.41125061343512       -7.79505341843808
H            0.15774379153078        4.06518807263489       -6.12287151248851
H           -1.29393655291606        5.64147015423815       -7.30621912340692
H           -2.00681509049948        5.15986815508918       -9.62192524373711
H           -1.21898786872809        3.10996544690680      -10.74296134434613
H            0.31429024069970        1.56721186088565       -9.63315813312871
H           -2.59376630618198        0.52483866693191       -1.89757482889252
H           -1.76518457080705        1.52450201015178       -0.70081388508388
H           -2.99347384361625        2.22918272034615       -1.74628996916382
H            0.15985487079143        2.57796899871712       -1.16078070599138
H            1.76460774370194        4.24187357737217       -1.50836165891490
H            2.73699489789401        4.32910968020485       -2.98802430148057
H            2.86872058530890        2.94754008263200       -1.90580579580575
H            1.03414879786977        5.40812239641666       -4.68926644624567
H            2.47903114334168        6.35107397009277       -5.05314953774686
H            1.43032077452634        5.87585759389412       -6.36076849515969
H            4.11862083171209        5.35263947371286       -6.73771756847037
H            5.70575624571040        3.47310453617276       -6.84662366949792
H            5.20107244455051        1.38317176705199       -5.63275491679653
H            3.26582956133165        0.92597824569736       -3.14711397718906
H            1.95993413102932        0.47081428485302       -4.24075253090128
H            3.64022867360384       -0.04317231817992       -4.55911814826875
H           -2.82352086701299        4.95653268451807       -3.55840644637977
H           -2.20405278920769        4.95763190033113       -5.19706095996212
H           -1.33133457255094        4.08767671182991       -3.92663863312776
H           -4.79440468822196        4.32778967816694       -5.24482491550536
H           -6.25352979379075        2.41236870230293       -5.77539249744465
H           -5.41042330152799        0.11937344624066       -5.45749980775247
H           -3.29771898923723       -1.30021194355782       -5.36905474155824
H           -3.55910052373160       -1.08875919032454       -3.65457491504963
H           -1.96415160367314       -0.72592623467423       -4.33991240137398
77
 energy: -114.113797341693 gnorm: 0.044624802212 xtb: 6.7.1 (edcfbbe)
O           -0.83488879225324       -0.64911886696149       -8.20648344845588
C           -0.52757472627297        0.05218885214353       -7.31002079940502
O           -1.10718942559720        0.61518073506459       -6.38634041974863
Ni          -0.07547284078140        1.74086393661745       -5.40256958618685
N            0.99394872861689        1.80125726902430       -6.91346021539985
C            1.16160744750972        0.48758600679640       -7.25677392682990
C            2.02126605210938        0.04904195121164       -8.42387183569003
C            1.75553819228067       -1.03199648724636       -9.25032838426688
C            2.70997116786464       -1.50930300843478      -10.13325957533007
C            3.95971820495417       -0.91120526277042      -10.19250776358233
C            4.23688220174341        0.15812861694385       -9.36009502701071
C            3.28301122181980        0.65519545152078       -8.49164715213669
C            0.38929217334306        2.68451515242110       -7.76593798530660
C           -0.13067181113480        3.85606953082102       -7.15055318272264
C           -0.95345288210498        4.72626972230154       -7.82570041802706
C           -1.32196885968162        4.44970308440312       -9.13726139327170
C           -0.83766537713152        3.29741378078106       -9.75682541444539
C            0.03298502266384        2.44137365043275       -9.11561241409804
C           -2.18472751752336        1.52330401508439       -1.73490353810568
C           -1.10335392910118        1.85495040981991       -2.70856014143583
C            0.07831676100656        2.41057799669877       -2.22523818784252
C            1.09307306827335        2.92184346996395       -3.05362631576641
C            2.18505428809308        3.65731626622152       -2.34864610037827
N            1.07511894701848        2.78111083574444       -4.36673514154692
C            2.33578712376450        3.06192431500123       -5.00745711530630
C            2.66456158067833        4.30360508649232       -5.57105566228093
C            1.84273807914889        5.54847713833329       -5.39366671134688
C            3.87572360536138        4.41842667488336       -6.24884082141945
C            4.77530961783260        3.37379723756500       -6.30316524840932
C            4.48945837497900        2.19142898843776       -5.63327539765830
C            3.28642164369536        2.02505666982905       -4.96590128809811
C            3.00982886083985        0.75578377943901       -4.21136192874962
N           -1.28892997590069        1.69093434796355       -4.00720089502652
C           -2.62529414138047        1.82352532986274       -4.48366942935683
C           -3.12691341296442        3.13243289184198       -4.61394397152727
C           -2.31866505601484        4.35834389888981       -4.29586889903152
C           -4.41882208913022        3.31304724093611       -5.09300137616072
C           -5.23713849578753        2.23549859557567       -5.39966242988250
C           -4.75075399069543        0.95458221208252       -5.23771462334988
C           -3.45455197870410        0.72215967089122       -4.77571415254710
C           -3.01958032410536       -0.68041432209823       -4.51702713262000
H            1.49121279753446       -0.10836924063674       -6.38841910259297
H            0.78810244988542       -1.51122831192280       -9.22576500562263
H            2.47808595960192       -2.34199915591674      -10.77736996644236
H            4.69914596812345       -1.27172857037004      -10.89082467559095
H            5.21719664057869        0.61104870893067       -9.37307300209144
H            3.52892214623893        1.46693126611636       -7.82303951478488
H            0.13091869320450        4.06577454028067       -6.12387886107326
H           -1.31014206430397        5.62002238347528       -7.33584814574920
H           -1.97699390375747        5.12426655377380       -9.66664203401167
H           -1.15845657843339        3.07349898182977      -10.76257698676643
H            0.39014737888730        1.56383076927022       -9.63678728978919
H           -2.60495344011204        0.54294520714787       -1.94725747591974
H           -1.77947948180304        1.52768485694421       -0.72907487357064
H           -2.99738574296399        2.24543227640532       -1.78386688780231
H            0.18259088963966        2.54914515178208       -1.16324368196682
H            1.76139444252153        4.23090074251277       -1.52809327153351
H            2.74548210634951        4.31571464255513       -3.00264655193361
H            2.88150879942858        2.94334048711375       -1.91083448848701
H            1.02434353737481        5.42130985886731       -4.68850766506598
H            2.49076030593123        6.34219354703219       -5.02340664069523
H            1.45028797573083        5.89702248779560       -6.34911132957999
H            4.11357006730103        5.35928459960206       -6.72061737478097
H            5.70422529255716        3.48183425505381       -6.83889450876332
H            5.20555087288541        1.38403184161981       -5.63202407097314
H            3.25831303659268        0.89108881050706       -3.15777476730003
H            1.94985741077256        0.46243096729607       -4.25697723726291
H            3.62858734142557       -0.05410211527747       -4.58677015370180
H           -2.83471824100183        4.95528138694544       -3.54555100484114
H           -2.23347858130551        4.97557412609867       -5.18933299913951
H           -1.32178413175687        4.12778185127269       -3.92784651366182