
                                 *****************
                                 * O   R   C   A *
                                 *****************

                                            #,                                       
                                            ###                                      
                                            ####                                     
                                            #####                                    
                                            ######                                   
                                           ########,                                 
                                     ,,################,,,,,                         
                               ,,#################################,,                 
                          ,,##########################################,,             
                       ,#########################################, ''#####,          
                    ,#############################################,,   '####,        
                  ,##################################################,,,,####,       
                ,###########''''           ''''###############################       
              ,#####''   ,,,,##########,,,,          '''####'''          '####       
            ,##' ,,,,###########################,,,                        '##       
           ' ,,###''''                  '''############,,,                           
         ,,##''                                '''############,,,,        ,,,,,,###''
      ,#''                                            '''#######################'''  
     '                                                          ''''####''''         
             ,#######,   #######,   ,#######,      ##                                
            ,#'     '#,  ##    ##  ,#'     '#,    #''#        ,####,    ,#,          
            ##       ##  ##   ,#'  ##            #'  '#       #'       ,# #          
            ##       ##  #######   ##           ,######,      #####,      #          
            '#,     ,#'  ##    ##  '#,     ,#' ,#      #,     #,   #      #          
             '#######'   ##     ##  '#######'  #'      '#     '####' #    #          



                #########################################################
                #                        -***-                          #
                #          Department of theory and spectroscopy        #
                #                                                       #
                #                      Frank Neese                      #
                #                                                       #
                #     Directorship, Architecture, Infrastructure        #
                #                    SHARK, DRIVERS                     #
                #        Core code/Algorithms in most modules           #
                #                                                       #
                #        Max Planck Institute fuer Kohlenforschung      #
                #                Kaiser Wilhelm Platz 1                 #
                #                 D-45470 Muelheim/Ruhr                 #
                #                      Germany                          #
                #                                                       #
                #                  All rights reserved                  #
                #                        -***-                          #
                #########################################################


                         Program Version 6.1.0  -  RELEASE   -
                                (GIT: $679e74b$)
                          ($2025-06-10 18:02:51 +0200$)


 With contributions from (in alphabetic order):
[Max-Planck-Institut fuer Kohlenforschung]                               
  Daniel Aravena         : Magnetic Suceptibility                        
  Michael Atanasov       : Ab Initio Ligand Field Theory (pilot matlab implementation)
  Alexander A. Auer      : GIAO ZORA, VPT2 properties, NMR spectrum      
  Ute Becker             : All parallelization in ORCA, NUMFREQ, NUMCALC 
  Giovanni Bistoni       : ED, misc. LED, open-shell LED, HFLD           
  Dmytro Bykov           : pre 5.0 version of the SCF Hessian            
  Marcos Casanova-Páez   : Triplet and SCS-CIS(D). UHF-(DLPNO)-IP/EA/STEOM-CCSD. UHF-CVS-IP/STEOM-CCSD   
  Vijay G. Chilkuri      : MRCI spin determinant printing, contributions to CSF-ICE 
  Pauline Colinet        : FMM embedding                                 
  Dipayan Datta          : RHF DLPNO-CCSD density                        
  Achintya Kumar Dutta   : EOM-CC, STEOM-CC                              
  Nicolas Foglia         : Exact transition moments, OPA infrastructure, MCD improvements    
  Dmitry Ganyushin       : Spin-Orbit,Spin-Spin,Magnetic field MRCI      
  Miquel Garcia-Rates    : C-PCM and meta-GGA Hessian, CCSD/C-PCM, Gaussian charge scheme 
  Tiago L. C. Gouveia    : GS-ROHF, GS-ROCIS                             
  Yang Guo               : DLPNO-NEVPT2, F12-NEVPT2, CIM, IAO-localization        
  Andreas Hansen         : Spin unrestricted coupled pair/coupled cluster methods 
  Ingolf Harden          : AUTO-CI MPn and infrastructure                
  Benjamin Helmich-Paris : MC-RPA, TRAH-(SCF,CASSCF), AVAS, COSX integrals, SCF dyn. polar., MC-PDFT, srDFT 
  Lee Huntington         : MR-EOM, pCC                                   
  Robert Izsak           : Overlap fitted RIJCOSX, COSX-SCS-MP3, EOM     
  Riya Kayal             : Wick's Theorem for AUTO-CI, AUTO-CI UHF-CCSDT 
  Emily Kempfer          : AUTO-CI RHF CISDT and CCSDT, approximate NEVPT4
  Christian Kollmar      : KDIIS, OOCD, Brueckner-CCSD(T), CCSD density, CASPT2, CASPT2-K, improved NEVPT2 
  Axel Koslowski         : Symmetry handling                             
  Simone Kossmann        : meta-GGA functionals, TD-DFT gradient, OOMP2, (MP2 Hessian; deprecated post 5.0) 
  Lucas Lang             : DCDCAS, Hyperfine gauge corrections, ICE-SOC+SSC
  Marvin Lechner         : AUTO-CI (C++ implementation), FIC-MRCC        
  Spencer Leger          : CASSCF response                               
  Dagmar Lenk            : GEPOL surface, SMD, ORCA-2-JSON               
  Dimitrios Liakos       : Extrapolation schemes; Compound Job, Property file
  Dimitrios Manganas     : Further ROCIS development; embedding schemes. LFT, Crystal Embedding 
  Dimitrios Pantazis     : SARC Basis sets                               
  Anastasios Papadopoulos: AUTO-CI, single reference methods and gradients 
  Taras Petrenko         : pre 6.0 DFT Hessian and TD-DFT gradient,  ECA, NRVS 
  Petra Pikulova         : Analytic Raman intensities                    
  Peter Pinski           : DLPNO-MP2, DLPNO-MP2 Gradient                 
  Shashank Vittal Rao    : ES-AILFT, MagRelax                            
  Christoph Reimann      : Effective Core Potentials                     
  Marius Retegan         : Local ZFS, SOC                                
  Christoph Riplinger    : Optimizer, TS searches, QM/MM, DLPNO-CCSD(T), (RO)-DLPNO pert. Triples 
  Michael Roemelt        : Original ROCIS implementation, recursive CI coupling coefficients
  Masaaki Saitow         : Open-shell DLPNO-CCSD energy and density      
  Barbara Sandhoefer     : DKH picture change effects                    
  Yorick L. A. Schmerwitz: GMF and freeze-and-release deltaSCF, NEB S-IDPP initial path                    
  Kantharuban Sivalingam : CASSCF convergence/infrastructure, NEVPT2, NEVPT3, NEVPT4(SD), FIC-MRCI and CEPA variants
  Bernardo de Souza      : ESD, SOC TD-DFT                               
  Georgi L. Stoychev     : AutoAux, RI-MP2 NMR, DLPNO-MP2 response, X2C  
  Van Anh Tran           : RI-MP2 g-tensors                              
  Willem Van den Heuvel  : Paramagnetic NMR                              
  Zikuan Wang            : NOTCH, Electric field optimization            
  Frank Wennmohs         : Technical directorship and infrastructure     
  Hang Xu                : AUTO-CI-Response properties                   
                                                                         
[FACCTs GmbH]                                                            
  Markus Bursch, Nicolas Foglia, Miquel Garcia-Rates, Ingolf Harden, Hagen Neugebauer, Anastasios Papadopoulos, 
  Christoph Riplinger, Bernardo de Souza, Georgi L. Stoychev                                                    
                                                                 
  APM, various basis sets, CI-OPT, improved COSX, DLPNO-Multilevel,           
  DOCKER, DRACO, updates on ESD, Fragmentator, GOAT, IRC, LR-CPCM, L-BFGS, MBIS, meta-GGA TD-DFT gradient, ML-optimized integration grids, 
  MM, NACMEs, nearIR, NEB, NEB-TS, NL-DFT gradient (VV10), 2- and 3-layer-ONIOM, interface openCOSMO-RS, QMMM,   
  Crystal-QMMM, RESP, rigid body optimization, SF, symmetry and pop. for TD-DFT, various functionals, SOLVATOR                                   
                                                                         
[Other institutions]                                                     
  V. Asgeirsson          : NEB                                           
  Christoph Bannwarth    : sTDA-DFT, sTD-DFT, PBEh-3c, B97-3c, D3        
  Giovanni Bistoni       : ETS/NOCV, ADLD/ADEX, COVALED                  
  Martin Brehm           : Molecular dynamics                            
  Ronald Cardenas        : ETS/NOCV                                      
  Martina Colucci        : COVALED                                       
  Sebastian Ehlert       : rSCAN, r2SCAN, r2SCAN-3c, D4, dhf basis sets  
  Marvin Friede          : D4 for Fr, Ra, Ac-Lr                          
  Lars Goerigk           : TD-DFT with DH, B97 family of functionals     
  Stefan Grimme          : VdW corrections, initial TS optimization, DFT functionals, gCP, sTDA/sTD-DF 
  Waldemar Hujo          : DFT-NL                                        
  H. Jonsson             : NEB                                           
  Holger Kruse           : gCP                                           
  Marcel Mueller         : wB97X-3c, vDZP basis set                      
  Hagen Neugebauer       : wr2SCAN, Native XTB                           
  Gianluca Regni         : ADLD/ADEX                                     
  Tobias Risthaus        : pre 6.0 range-separated hybrid DFT and stability analysis
  Lukas Wittmann         : regularized MP2, r2SCAN double-hybrids, wr2SCAN        
                                                                         
We gratefully acknowledge several colleagues who have allowed us to      
interface, adapt or use parts of their codes:                            
  Ed Valeev, F. Pavosevic, A. Kumar             : LibInt (2-el integral package), F12 methods 
  Garnet Chan, S. Sharma, J. Yang, R. Olivares  : DMRG                   
  Ulf Ekstrom                                   : XCFun DFT Library      
  Mihaly Kallay                                 : mrcc  (arbitrary order and MRCC methods)
  Frank Weinhold                                : gennbo (NPA and NBO analysis)           
  Simon Mueller                                 : openCOSMO-RS                            
  Christopher J. Cramer and Donald G. Truhlar   : smd solvation model                     
  S Lehtola, MJT Oliveira, MAL Marques          : LibXC Library                           
  Liviu Ungur et al                             : ANISO software                          


 Your calculation uses the libint2 library for the computation of 2-el integrals
 For citations please refer to: http://libint.valeyev.net

 Your ORCA version has been built with support for libXC version: 7.0.0
 For citations please refer to: https://libxc.gitlab.io

 This ORCA versions uses:
   CBLAS   interface :  Fast vector & matrix operations
   LAPACKE interface :  Fast linear algebra routines
   SCALAPACK package :  Parallel linear algebra routines
   Shared memory     :  Shared parallel matrices
   BLAS/LAPACK       :  OpenBLAS 0.3.29  USE64BITINT DYNAMIC_ARCH NO_AFFINITY Haswell SINGLE_THREADED
        Core in use  :  Haswell
   Copyright (c) 2011-2014, The OpenBLAS Project


  ***********************************
  * Starting time: Sat Jan 24 19:57:54 2026
  * Host name:     node213.cluster
  * Process ID:    2596294
  * Working dir.:  /data/scratch/56607526
  ***********************************

NOTE: MaxCore=1125 MB was set to SCF,MP2,MDCI,CIPSI,MRCI,RASCI and CIS
      => If you want to overwrite this, your respective input block should be placed after the MaxCore statement
Your calculation utilizes the geometrical counterpoise correction gCP
Please cite in your paper:
H.Kruse, S. Grimme J.Chem.Phys., 136, (2012), 154101 
   

Your calculation utilizes the atom-pairwise dispersion correction
based on EEQ partial charges (D4)


================================================================================

----- Orbital basis set information -----
Your calculation utilizes the basis: def2-mTZVPP
   Stefan Grimme, Andreas Hansen, Sebastian Ehlert, and Jan-Michael Mewes 
   J. Chem. Phys. 154, 064103 (2021). DOI: 10.1063/5.0040021

----- AuxJ basis set information -----
Your calculation utilizes the basis: def2-mTZVPP/J
   Stefan Grimme, Andreas Hansen, Sebastian Ehlert, and Jan-Michael Mewes 
   J. Chem. Phys. 154, 000000 (2021). DOI: 10.1063/5.0040021

================================================================================
                                        WARNINGS
                       Please study these warnings very carefully!
================================================================================



WARNING: SCAN, rSCAN, or r2SCAN functional requested.
  ===> : libXC variant has now been activated.



WARNING: Geometry Optimization
  ===> : Switching off AutoStart
         For restart on a previous wavefunction, please use MOREAD

================================================================================
                                       INPUT FILE
================================================================================
NAME = testpairs_id_10struct_1.inp
|  1> !r2scan-3c opt freq
|  2>  
|  3>  
|  4>  %pal 
|  5>  nprocs 8 
|  6>  end 
|  7>  
|  8>  %maxcore 1125 
|  9>  
| 10>  * XYZ 0 1 
| 11> C     -4.17799600     -1.05881800     -4.82939000
| 12> C     -2.82217500     -0.99385500     -4.18931600
| 13> C     -2.31200800      0.20298900     -3.71491100
| 14> C     -1.04502900      0.27579500     -3.15326000
| 15> C     -0.50958900      1.60036500     -2.68914500
| 16> C     -0.27641300     -0.88225300     -3.05467200
| 17> C      1.08012900     -0.83730400     -2.45758600
| 18> C      1.27311400     -0.52877600     -1.11431800
| 19> C      2.56946700     -0.52445900     -0.60364900
| 20> C      3.63622200     -0.82881800     -1.41339900
| 21> C      3.39410900     -1.16122300     -2.76638100
| 22> N      2.08869300     -1.13495300     -3.25486100
| 23> Ni      2.90860700     -1.54758100     -4.86778700
| 24> O      1.47044800     -1.48943100     -5.97254600
| 25> C      1.56024500     -1.69927800     -7.23278800
| 26> O      0.60896100     -1.70724200     -7.99453800
| 27> N      2.88782000     -1.93792800     -7.62598400
| 28> C      3.33891200     -2.16805700     -8.91242800
| 29> C      2.53435600     -1.88532800    -10.02419300
| 30> C      2.99165300     -2.10604700    -11.30622300
| 31> C      4.26297600     -2.60817900    -11.53347900
| 32> C      5.06795100     -2.89167600    -10.44457000
| 33> C      4.62036600     -2.67948800     -9.15554600
| 34> C      3.81864200     -1.97061600     -6.49157300
| 35> C      4.92015100     -0.98145400     -6.67727100
| 36> C      4.64383400      0.29955300     -7.16679800
| 37> C      5.65249600      1.22470600     -7.34177300
| 38> C      6.96515700      0.89714600     -7.03978500
| 39> C      7.25761300     -0.37171600     -6.56949100
| 40> C      6.25162900     -1.30118300     -6.39775200
| 41> N      4.31457400     -1.58056300     -3.66745300
| 42> C      5.67454500     -1.47302300     -3.42978600
| 43> C      6.44555000     -2.63739000     -3.31134400
| 44> C      5.76999000     -3.97404800     -3.38468700
| 45> C      7.81275900     -2.53366200     -3.11632700
| 46> C      8.44036300     -1.29999000     -3.03633300
| 47> C      9.92463700     -1.19106400     -2.83113100
| 48> C      7.66780900     -0.15382300     -3.16862300
| 49> C      6.30093100     -0.21741200     -3.37028500
| 50> C      5.49177700      1.02894500     -3.55922300
| 51> C     -0.76828600     -2.09610700     -3.54373900
| 52> C      0.07089100     -3.33516900     -3.48835100
| 53> C     -2.03683800     -2.13394200     -4.09686000
| 54> H     -4.72151200     -1.94275500     -4.49812800
| 55> H     -4.06919600     -1.11874400     -5.91242000
| 56> H     -4.76603400     -0.17415400     -4.59261300
| 57> H     -2.90496400      1.10498500     -3.79827200
| 58> H     -0.60562500      1.70170300     -1.60727800
| 59> H     -1.05719800      2.41668600     -3.15631300
| 60> H      0.54416200      1.69430500     -2.94231100
| 61> H      0.42570300     -0.31755500     -0.48021900
| 62> H      2.73376900     -0.28617000      0.44053400
| 63> H      4.64955600     -0.84888800     -1.03822600
| 64> H      1.54162900     -1.50195800     -9.86077400
| 65> H      2.34655200     -1.87560300    -12.14425400
| 66> H      4.61980000     -2.77451900    -12.54102300
| 67> H      6.06446300     -3.28631100    -10.59770900
| 68> H      5.28103400     -2.91293800     -8.33762300
| 69> H      4.23895800     -2.99729600     -6.40987700
| 70> H      3.62053900      0.56062300     -7.40121400
| 71> H      5.41635100      2.21227800     -7.71641600
| 72> H      7.75425000      1.62462300     -7.17642000
| 73> H      8.27936000     -0.64196700     -6.33868800
| 74> H      6.49646700     -2.29029500     -6.03737000
| 75> H      4.94954700     -3.93166400     -4.10083900
| 76> H      6.47203700     -4.75407700     -3.67379300
| 77> H      5.34341500     -4.23449200     -2.41462000
| 78> H      8.40165300     -3.43812100     -3.02495300
| 79> H     10.37262700     -2.17422700     -2.70282100
| 80> H     10.14807400     -0.58992700     -1.94933300
| 81> H     10.39275800     -0.70792500     -3.68930700
| 82> H      8.14955400      0.81491200     -3.12762400
| 83> H      6.12519500      1.85477200     -3.87641000
| 84> H      4.98568600      1.31082500     -2.63370000
| 85> H      4.72650900      0.85890200     -4.31905000
| 86> H     -0.50722100     -4.21027600     -3.77746500
| 87> H      0.90765700     -3.22418300     -4.18675100
| 88> H      0.48300800     -3.48880900     -2.49068600
| 89> H     -2.41779700     -3.06934800     -4.48369400
| 90> 
| 91>  **                         ****END OF INPUT****
================================================================================

                       *****************************
                       * Geometry Optimization Run *
                       *****************************

Geometry optimization settings:
Update method            Update   .... BFGS
Choice of coordinates    CoordSys .... (2022) Redundant Internals
Initial Hessian          InHess   .... Almloef's Model
Max. no of cycles        MaxIter  .... 237

Convergence Tolerances:
Energy Change            TolE     ....  5.0000e-06 Eh
Max. Gradient            TolMAXG  ....  3.0000e-04 Eh/bohr
RMS Gradient             TolRMSG  ....  1.0000e-04 Eh/bohr
Max. Displacement        TolMAXD  ....  4.0000e-03 bohr
RMS Displacement         TolRMSD  ....  2.0000e-03 bohr
Strict Convergence                .... False

------------------------------------------------------------------------------
                        ORCA OPTIMIZATION COORDINATE SETUP
------------------------------------------------------------------------------

The optimization will be done in redundant internal coordinates (2022)
Making redundant internal coordinates   ...  (2022 redundants) done
Evaluating the initial hessian          ...  (Almloef) done
Evaluating the coordinates              ...  done
Calculating the B-matrix                .... done
Calculating the G-matrix                .... done
The number of degrees of freedom        ....  531

    -----------------------------------------------------------------
                    Redundant Internal Coordinates


    -----------------------------------------------------------------
         Definition                    Initial Value    Approx d2E/dq
    -----------------------------------------------------------------
      1. B(C   1,C   0)                  1.5007         0.415996   
      2. B(C   2,C   1)                  1.3848         0.636766   
      3. B(C   3,C   2)                  1.3878         0.629867   
      4. B(C   4,C   3)                  1.5022         0.413753   
      5. B(C   5,C   3)                  1.3934         0.617040   
      6. B(C   6,C   5)                  1.4828         0.444283   
      7. B(C   7,C   6)                  1.3917         0.620929   
      8. B(C   8,C   7)                  1.3933         0.617229   
      9. B(C   9,C   8)                  1.3734         0.664023   
     10. B(C  10,C   9)                  1.4141         0.571863   
     11. B(N  11,C  10)                  1.3941         0.551305   
     12. B(N  11,C   6)                  1.3196         0.724660   
     13. B(Ni 12,N  11)                  1.8558         1.022872   
     14. B(Ni 12,C  10)                  2.1911         0.333249   
     15. B(O  13,Ni 12)                  1.8144         1.190806   
     16. B(C  14,O  13)                  1.2807         0.835957   
     17. B(C  14,Ni 12)                  2.7266         0.046603   
     18. B(O  15,C  14)                  1.2187         1.049902   
     19. B(N  16,C  14)                  1.4050         0.529604   
     20. B(C  17,N  16)                  1.3825         0.575172   
     21. B(C  18,C  17)                  1.4012         0.599685   
     22. B(C  19,C  18)                  1.3789         0.650737   
     23. B(C  20,C  19)                  1.3857         0.634846   
     24. B(C  21,C  20)                  1.3835         0.639890   
     25. B(C  22,C  21)                  1.3809         0.645990   
     26. B(C  22,C  17)                  1.4010         0.600059   
     27. B(C  23,N  16)                  1.4678         0.420512   
     28. B(C  23,Ni 12)                  1.9089         0.939792   
     29. B(C  24,C  23)                  1.4921         0.429444   
     30. B(C  24,Ni 12)                  2.7642         0.040583   
     31. B(C  25,C  24)                  1.3989         0.604663   
     32. B(C  26,C  25)                  1.3798         0.648587   
     33. B(C  27,C  26)                  1.3862         0.633562   
     34. B(C  28,C  27)                  1.3845         0.637652   
     35. B(C  29,C  28)                  1.3804         0.647308   
     36. B(C  29,C  24)                  1.3976         0.607669   
     37. B(N  30,Ni 12)                  1.8490         1.048981   
     38. B(N  30,C  10)                  1.3546         0.637236   
     39. B(C  31,N  30)                  1.3848         0.570465   
     40. B(C  32,C  31)                  1.4015         0.598931   
     41. B(C  33,C  32)                  1.4995         0.417911   
     42. B(C  34,C  32)                  1.3849         0.636525   
     43. B(C  35,C  34)                  1.3864         0.633007   
     44. B(C  36,C  35)                  1.5023         0.413522   
     45. B(C  37,C  35)                  1.3885         0.628160   
     46. B(C  38,C  37)                  1.3831         0.640750   
     47. B(C  38,C  31)                  1.4044         0.592511   
     48. B(C  39,C  38)                  1.4979         0.420264   
     49. B(C  40,C   5)                  1.3981         0.606571   
     50. B(C  41,C  40)                  1.4975         0.420921   
     51. B(C  42,C  40)                  1.3844         0.637753   
     52. B(C  42,C   1)                  1.3875         0.630607   
     53. B(H  43,C   0)                  1.0893         0.361079   
     54. B(H  44,C   0)                  1.0901         0.359929   
     55. B(H  45,C   0)                  1.0883         0.362304   
     56. B(H  46,C   2)                  1.0827         0.369948   
     57. B(H  47,C   4)                  1.0908         0.358993   
     58. B(H  48,C   4)                  1.0883         0.362292   
     59. B(H  49,C   4)                  1.0878         0.363022   
     60. B(H  50,C   7)                  1.0793         0.374592   
     61. B(H  51,C   8)                  1.0836         0.368725   
     62. B(H  52,C   9)                  1.0807         0.372558   
     63. B(H  53,C  18)                  1.0767         0.378194   
     64. B(H  54,C  19)                  1.0824         0.370317   
     65. B(H  55,C  20)                  1.0817         0.371210   
     66. B(H  56,C  21)                  1.0827         0.369897   
     67. B(H  57,C  22)                  1.0770         0.377682   
     68. B(H  58,C  23)                  1.1124         0.331666   
     69. B(H  59,C  25)                  1.0818         0.371144   
     70. B(H  60,C  26)                  1.0823         0.370402   
     71. B(H  61,C  27)                  1.0819         0.370944   
     72. B(H  62,C  28)                  1.0818         0.371124   
     73. B(H  63,C  29)                  1.0808         0.372456   
     74. B(H  64,C  33)                  1.0899         0.360284   
     75. B(H  65,C  33)                  1.0885         0.362050   
     76. B(H  66,C  33)                  1.0913         0.358450   
     77. B(H  67,C  34)                  1.0831         0.369291   
     78. B(H  68,C  36)                  1.0880         0.362741   
     79. B(H  69,C  36)                  1.0903         0.359641   
     80. B(H  70,H  62)                  3.3897         0.010000   
     81. B(H  70,C  36)                  1.0904         0.359538   
     82. B(H  71,C  37)                  1.0827         0.369908   
     83. B(H  72,C  39)                  1.0880         0.362711   
     84. B(H  73,H  49)                  4.4687         0.010000   
     85. B(H  73,C  39)                  1.0919         0.357636   
     86. B(H  74,C  39)                  1.0917         0.357811   
     87. B(H  75,C  41)                  1.0879         0.362836   
     88. B(H  76,H  64)                  4.1042         0.010000   
     89. B(H  76,C  41)                  1.0956         0.352816   
     90. B(H  77,C  41)                  1.0903         0.359687   
     91. B(H  78,C  42)                  1.0816         0.371451   
     92. A(C   1,C   0,H  45)          111.1101         0.330451   
     93. A(C   1,C   0,H  43)          110.8681         0.330266   
     94. A(H  43,C   0,H  45)          108.8972         0.291243   
     95. A(H  43,C   0,H  44)          107.8982         0.290942   
     96. A(H  44,C   0,H  45)          108.3457         0.291097   
     97. A(C   1,C   0,H  44)          109.6300         0.330092   
     98. A(C   2,C   1,C  42)          118.6074         0.437492   
     99. A(C   0,C   1,C   2)          121.0876         0.406176   
    100. A(C   0,C   1,C  42)          120.2794         0.405479   
    101. A(C   1,C   2,C   3)          121.3527         0.437399   
    102. A(C   3,C   2,H  46)          119.1737         0.355476   
    103. A(C   1,C   2,H  46)          119.4651         0.356134   
    104. A(C   2,C   3,C   5)          119.2501         0.434926   
    105. A(C   2,C   3,C   4)          119.7821         0.405008   
    106. A(C   4,C   3,C   5)          120.9539         0.403540   
    107. A(C   3,C   4,H  49)          110.4582         0.330264   
    108. A(C   3,C   4,H  48)          110.4508         0.330154   
    109. A(H  48,C   4,H  49)          108.8284         0.291487   
    110. A(H  47,C   4,H  49)          107.9435         0.291068   
    111. A(C   3,C   4,H  47)          110.9131         0.329655   
    112. A(H  47,C   4,H  48)          108.1640         0.290976   
    113. A(C   6,C   5,C  40)          119.2779         0.407413   
    114. A(C   3,C   5,C  40)          120.1834         0.431988   
    115. A(C   3,C   5,C   6)          120.5264         0.408649   
    116. A(C   5,C   6,N  11)          116.6843         0.417767   
    117. A(C   7,C   6,N  11)          121.8140         0.443645   
    118. A(C   5,C   6,C   7)          121.4827         0.409104   
    119. A(C   6,C   7,H  50)          120.1057         0.355367   
    120. A(C   8,C   7,H  50)          120.9701         0.355006   
    121. A(C   6,C   7,C   8)          118.9121         0.433833   
    122. A(C   9,C   8,H  51)          119.9418         0.358478   
    123. A(C   7,C   8,C   9)          120.3899         0.439110   
    124. A(C   7,C   8,H  51)          119.6669         0.354058   
    125. A(C   8,C   9,C  10)          118.8954         0.433113   
    126. A(C  10,C   9,H  52)          119.2296         0.350128   
    127. A(C   8,C   9,H  52)          121.8509         0.359110   
    128. A(N  11,C  10,N  30)          114.1446         0.421566   
    129. A(C   9,C  10,N  11)          119.4164         0.416210   
    130. A(N  11,C  10,Ni 12)           57.3011         0.423426   
    131. A(Ni 12,C  10,N  30)           57.1820         0.434571   
    132. A(C   9,C  10,N  30)          126.3600         0.427115   
    133. A(C  10,N  11,Ni 12)           83.4907         0.517547   
    134. A(C   6,N  11,Ni 12)          155.9095         0.544905   
    135. A(C   6,N  11,C  10)          120.5457         0.431385   
    136. A(N  11,Ni 12,C  24)          147.6609         0.365497   
    137. A(C  23,Ni 12,C  24)           30.8653         0.361837   
    138. A(C  14,Ni 12,C  24)           78.6657         0.227235   
    139. A(O  13,Ni 12,C  24)           99.8842         0.375176   
    140. A(O  13,Ni 12,C  14)           23.3197         0.384276   
    141. A(C  10,Ni 12,C  23)          138.5275         0.528411   
    142. A(C  10,Ni 12,C  24)          115.4962         0.304770   
    143. A(N  11,Ni 12,O  13)           99.8966         0.679609   
    144. A(N  11,Ni 12,C  14)          123.2125         0.374289   
    145. A(C  10,Ni 12,O  13)          138.9317         0.549894   
    146. A(C  14,Ni 12,C  23)           59.0419         0.370512   
    147. A(C  10,Ni 12,N  11)           39.2082         0.534306   
    148. A(C  23,Ni 12,N  30)          100.7059         0.655301   
    149. A(C  24,Ni 12,N  30)           82.8346         0.367079   
    150. A(C  14,Ni 12,N  30)          159.7431         0.375921   
    151. A(O  13,Ni 12,C  23)           82.3592         0.671790   
    152. A(C  10,Ni 12,C  14)          162.0386         0.311631   
    153. A(N  11,Ni 12,N  30)           77.0379         0.662898   
    154. A(C  10,Ni 12,N  30)           38.0039         0.536854   
    155. A(Ni 12,O  13,C  14)          122.5680         0.576372   
    156. A(Ni 12,C  14,N  16)           77.5798         0.301314   
    157. A(O  13,C  14,N  16)          111.6821         0.439438   
    158. A(O  13,C  14,O  15)          124.1513         0.498146   
    159. A(Ni 12,C  14,O  15)          158.2054         0.336882   
    160. A(Ni 12,C  14,O  13)           34.1123         0.324421   
    161. A(O  15,C  14,N  16)          124.1609         0.457987   
    162. A(C  17,N  16,C  23)          120.5664         0.394622   
    163. A(C  14,N  16,C  23)          112.7501         0.388965   
    164. A(C  14,N  16,C  17)          126.6540         0.411001   
    165. A(N  16,C  17,C  22)          121.3776         0.422982   
    166. A(N  16,C  17,C  18)          121.1562         0.422935   
    167. A(C  18,C  17,C  22)          117.4632         0.428949   
    168. A(C  17,C  18,H  53)          118.7415         0.353849   
    169. A(C  19,C  18,H  53)          120.2580         0.358792   
    170. A(C  17,C  18,C  19)          120.9960         0.435245   
    171. A(C  18,C  19,H  54)          119.2163         0.357510   
    172. A(C  18,C  19,C  20)          120.9811         0.439739   
    173. A(C  20,C  19,H  54)          119.8013         0.356012   
    174. A(C  19,C  20,H  55)          120.7391         0.356157   
    175. A(C  21,C  20,H  55)          120.6407         0.356636   
    176. A(C  19,C  20,C  21)          118.6202         0.438407   
    177. A(C  20,C  21,H  56)          119.9266         0.356422   
    178. A(C  22,C  21,H  56)          119.1015         0.356997   
    179. A(C  20,C  21,C  22)          120.9719         0.439786   
    180. A(C  21,C  22,H  57)          118.4742         0.358263   
    181. A(C  17,C  22,H  57)          120.5586         0.353805   
    182. A(C  17,C  22,C  21)          120.9668         0.434721   
    183. A(Ni 12,C  23,H  58)          108.7961         0.417707   
    184. A(N  16,C  23,C  24)          110.9295         0.377438   
    185. A(Ni 12,C  23,C  24)          108.1135         0.491944   
    186. A(Ni 12,C  23,N  16)          110.4982         0.486732   
    187. A(C  24,C  23,H  58)          110.0027         0.327381   
    188. A(N  16,C  23,H  58)          108.4777         0.324297   
    189. A(C  25,C  24,C  29)          117.8827         0.430559   
    190. A(C  23,C  24,C  29)          121.7880         0.405104   
    191. A(Ni 12,C  24,C  29)          121.0317         0.303037   
    192. A(C  23,C  24,C  25)          120.3183         0.404749   
    193. A(Ni 12,C  24,C  25)          105.8352         0.302796   
    194. A(Ni 12,C  24,C  23)           41.0211         0.286863   
    195. A(C  24,C  25,C  26)          120.9278         0.435634   
    196. A(C  26,C  25,H  59)          120.1455         0.357444   
    197. A(C  24,C  25,H  59)          118.9251         0.353217   
    198. A(C  25,C  26,C  27)          120.4085         0.439316   
    199. A(C  27,C  26,H  60)          119.8433         0.355903   
    200. A(C  25,C  26,H  60)          119.7482         0.357323   
    201. A(C  26,C  27,C  28)          119.3806         0.437971   
    202. A(C  28,C  27,H  61)          120.3369         0.356381   
    203. A(C  26,C  27,H  61)          120.2815         0.355991   
    204. A(C  27,C  28,C  29)          120.3607         0.439670   
    205. A(C  29,C  28,H  62)          119.5756         0.357321   
    206. A(C  27,C  28,H  62)          120.0630         0.356410   
    207. A(C  24,C  29,C  28)          121.0235         0.435868   
    208. A(C  28,C  29,H  63)          119.5123         0.357539   
    209. A(C  24,C  29,H  63)          119.4637         0.353726   
    210. A(Ni 12,N  30,C  31)          148.9629         0.523344   
    211. A(C  10,N  30,C  31)          121.9462         0.424147   
    212. A(C  10,N  30,Ni 12)           84.8142         0.534363   
    213. A(C  32,C  31,C  38)          119.5917         0.427880   
    214. A(N  30,C  31,C  38)          120.9787         0.421408   
    215. A(N  30,C  31,C  32)          119.3577         0.422219   
    216. A(C  33,C  32,C  34)          121.2261         0.406479   
    217. A(C  31,C  32,C  34)          119.5221         0.433421   
    218. A(C  31,C  32,C  33)          119.2489         0.402134   
    219. A(H  65,C  33,H  66)          108.4929         0.290876   
    220. A(H  64,C  33,H  66)          107.4061         0.290653   
    221. A(C  32,C  33,H  66)          110.2053         0.330118   
    222. A(H  64,C  33,H  65)          109.8075         0.291110   
    223. A(C  32,C  33,H  65)          111.1740         0.330664   
    224. A(C  32,C  33,H  64)          109.6718         0.330396   
    225. A(C  32,C  34,C  35)          121.4427         0.437762   
    226. A(C  35,C  34,H  67)          119.4748         0.355669   
    227. A(C  32,C  34,H  67)          119.0825         0.356004   
    228. A(C  36,C  35,C  37)          120.1888         0.404774   
    229. A(C  34,C  35,C  37)          118.4986         0.436719   
    230. A(C  34,C  35,C  36)          121.3069         0.405324   
    231. A(C  35,C  36,H  70)          110.4119         0.329707   
    232. A(H  69,C  36,H  70)          107.7117         0.290710   
    233. A(H  68,C  36,H  70)          108.4468         0.291102   
    234. A(H  68,C  36,H  69)          108.5689         0.291115   
    235. A(C  35,C  36,H  69)          110.6644         0.329723   
    236. A(C  35,C  36,H  68)          110.9400         0.330191   
    237. A(C  35,C  37,C  38)          121.7208         0.437677   
    238. A(C  38,C  37,H  71)          119.1030         0.356505   
    239. A(C  35,C  37,H  71)          119.1699         0.355306   
    240. A(C  37,C  38,C  39)          120.9282         0.407359   
    241. A(C  31,C  38,C  39)          119.8419         0.401768   
    242. A(C  31,C  38,C  37)          119.2118         0.433097   
    243. A(H  73,C  39,H  74)          107.7735         0.290235   
    244. A(H  72,C  39,H  74)          108.8689         0.290878   
    245. A(C  38,C  39,H  74)          109.6842         0.330327   
    246. A(H  72,C  39,H  73)          108.7235         0.290856   
    247. A(C  38,C  39,H  73)          110.9937         0.330300   
    248. A(C  38,C  39,H  72)          110.7216         0.331071   
    249. A(C  41,C  40,C  42)          120.3742         0.407133   
    250. A(C   5,C  40,C  42)          119.0698         0.434561   
    251. A(C   5,C  40,C  41)          120.5506         0.403544   
    252. A(H  76,C  41,H  77)          107.9926         0.289856   
    253. A(H  75,C  41,H  77)          109.3094         0.291133   
    254. A(C  40,C  41,H  77)          111.2384         0.330698   
    255. A(H  75,C  41,H  76)          108.5382         0.290252   
    256. A(C  40,C  41,H  76)          108.6995         0.329645   
    257. A(C  40,C  41,H  75)          110.9738         0.331175   
    258. A(C   1,C  42,C  40)          121.5212         0.437614   
    259. A(C  40,C  42,H  78)          119.2940         0.356473   
    260. A(C   1,C  42,H  78)          119.1738         0.355792   
    261. D(C   2,C   1,C   0,H  44)    102.7210         0.012804   
    262. D(C  42,C   1,C   0,H  43)     43.6103         0.012804   
    263. D(C   2,C   1,C   0,H  45)    -17.0089         0.012804   
    264. D(C   2,C   1,C   0,H  43)   -138.2554         0.012804   
    265. D(C  42,C   1,C   0,H  44)    -75.4132         0.012804   
    266. D(H  46,C   2,C   1,C   0)      0.6091         0.028153   
    267. D(C   3,C   2,C   1,C  42)     -0.1558         0.028153   
    268. D(H  46,C   2,C   1,C  42)    178.7738         0.028153   
    269. D(C   3,C   2,C   1,C   0)   -178.3205         0.028153   
    270. D(C   4,C   3,C   2,C   1)    178.0849         0.027507   
    271. D(C   5,C   3,C   2,H  46)   -179.5054         0.027507   
    272. D(C   4,C   3,C   2,H  46)     -0.8477         0.027507   
    273. D(C   5,C   3,C   2,C   1)     -0.5728         0.027507   
    274. D(H  47,C   4,C   3,C   5)    -80.8059         0.012671   
    275. D(H  47,C   4,C   3,C   2)    100.5598         0.012671   
    276. D(H  48,C   4,C   3,C   2)    -19.3521         0.012671   
    277. D(H  48,C   4,C   3,C   5)    159.2822         0.012671   
    278. D(H  49,C   4,C   3,C   2)   -139.7995         0.012671   
    279. D(C  40,C   5,C   3,C   2)      1.3796         0.026331   
    280. D(C   6,C   5,C   3,C   4)      1.4548         0.026331   
    281. D(C   6,C   5,C   3,C   2)   -179.9037         0.026331   
    282. D(C  40,C   5,C   3,C   4)   -177.2619         0.026331   
    283. D(C   7,C   6,C   5,C  40)   -115.7801         0.013462   
    284. D(N  11,C   6,C   5,C  40)     62.6621         0.013462   
    285. D(N  11,C   6,C   5,C   3)   -116.0661         0.013462   
    286. D(C   7,C   6,C   5,C   3)     65.4917         0.013462   
    287. D(C   8,C   7,C   6,C   5)    178.8950         0.026684   
    288. D(C   8,C   7,C   6,N  11)      0.5330         0.026684   
    289. D(H  50,C   7,C   6,N  11)   -178.2126         0.026684   
    290. D(H  50,C   7,C   6,C   5)      0.1494         0.026684   
    291. D(H  51,C   8,C   7,C   6)   -179.9868         0.026348   
    292. D(C   9,C   8,C   7,C   6)     -0.4251         0.026348   
    293. D(C   9,C   8,C   7,H  50)    178.3093         0.026348   
    294. D(H  51,C   8,C   7,H  50)     -1.2524         0.026348   
    295. D(C  10,C   9,C   8,H  51)    178.8108         0.030795   
    296. D(H  52,C   9,C   8,C   7)   -178.9488         0.030795   
    297. D(H  52,C   9,C   8,H  51)      0.6117         0.030795   
    298. D(C  10,C   9,C   8,C   7)     -0.7497         0.030795   
    299. D(N  30,C  10,C   9,H  52)      3.5133         0.024363   
    300. D(N  11,C  10,C   9,C   8)      1.8341         0.024363   
    301. D(N  11,C  10,C   9,H  52)   -179.9187         0.024363   
    302. D(N  30,C  10,C   9,C   8)   -174.7339         0.024363   
    303. D(Ni 12,N  11,C  10,N  30)     -6.5129         0.026319   
    304. D(Ni 12,N  11,C  10,C   9)    176.5155         0.026319   
    305. D(C   6,N  11,C  10,N  30)    175.2059         0.026319   
    306. D(Ni 12,N  11,C   6,C   7)   -175.2363         0.043768   
    307. D(C   6,N  11,C  10,C   9)     -1.7657         0.026319   
    308. D(C  10,N  11,C   6,C   7)      0.5769         0.043768   
    309. D(C   6,N  11,C  10,Ni 12)   -178.2812         0.026319   
    310. D(Ni 12,N  11,C   6,C   5)      6.3271         0.043768   
    311. D(C  10,N  11,C   6,C   5)   -177.8597         0.043768   
    312. D(N  11,Ni 12,C  10,N  30)    172.9255         0.010000   
    313. D(C  24,Ni 12,C   9,H  52)    -27.7911         0.010000   
    314. D(O  13,Ni 12,C  10,N  11)      6.8642         0.010000   
    315. D(C  24,Ni 12,C   9,C   8)    151.9407         0.010000   
    316. D(C  23,Ni 12,C   9,C   8)    177.6432         0.010000   
    317. D(C  23,Ni 12,C   9,H  52)     -2.0886         0.010000   
    318. D(C  14,Ni 12,C   9,H  52)   -164.4831         0.010000   
    319. D(C  14,Ni 12,C   9,C   8)     15.2487         0.010000   
    320. D(O  13,Ni 12,C   9,H  52)   -172.6634         0.010000   
    321. D(O  13,Ni 12,C   9,C   8)      7.0684         0.010000   
    322. D(N  11,Ni 12,C   9,H  52)    177.8204         0.010000   
    323. D(N  11,Ni 12,C   9,C   8)     -2.4478         0.010000   
    324. D(N  30,Ni 12,N  11,C  10)      4.4630         0.010000   
    325. D(C  24,Ni 12,N  11,C  10)    -48.4649         0.010000   
    326. D(C  24,Ni 12,N  11,C   6)    127.9068         0.010000   
    327. D(C  14,Ni 12,N  11,C  10)   -174.9721         0.010000   
    328. D(C  10,Ni 12,N  11,C   6)    176.3716         0.010000   
    329. D(N  30,Ni 12,C  10,N  11)   -172.9255         0.010000   
    330. D(C  24,Ni 12,C  10,N  30)    -33.4099         0.010000   
    331. D(O  13,Ni 12,N  11,C   6)      0.9432         0.010000   
    332. D(C  24,Ni 12,C  10,N  11)    153.6647         0.010000   
    333. D(O  13,Ni 12,N  11,C  10)   -175.4285         0.010000   
    334. D(C  23,Ni 12,C  10,N  30)     -7.1013         0.010000   
    335. D(C  23,Ni 12,C  10,N  11)    179.9732         0.010000   
    336. D(C  14,Ni 12,C  10,N  30)   -173.3192         0.010000   
    337. D(C  14,Ni 12,C  10,N  11)     13.7554         0.010000   
    338. D(N  30,Ni 12,N  11,C   6)   -179.1654         0.010000   
    339. D(O  13,Ni 12,C  10,N  30)    179.7897         0.010000   
    340. D(C  14,Ni 12,N  11,C   6)      1.3996         0.010000   
    341. D(C  14,O  13,Ni 12,C  24)     24.7480         0.010000   
    342. D(C  14,O  13,Ni 12,C  10)    174.6369         0.010000   
    343. D(C  14,O  13,Ni 12,C  23)     -0.7648         0.010000   
    344. D(C  14,O  13,Ni 12,N  11)    179.0353         0.010000   
    345. D(N  16,C  14,O  13,Ni 12)     -1.4670         0.060242   
    346. D(O  15,C  14,Ni 12,C  24)   -160.2775         0.010000   
    347. D(O  15,C  14,Ni 12,C  23)    173.9650         0.010000   
    348. D(O  15,C  14,Ni 12,O  13)     -5.1510         0.010000   
    349. D(O  15,C  14,Ni 12,N  11)     -6.2869         0.010000   
    350. D(O  15,C  14,Ni 12,C  10)    -16.6366         0.010000   
    351. D(O  13,C  14,Ni 12,N  30)   -179.5455         0.010000   
    352. D(O  13,C  14,Ni 12,C  24)   -155.1264         0.010000   
    353. D(O  13,C  14,Ni 12,C  23)    179.1161         0.010000   
    354. D(O  15,C  14,O  13,Ni 12)    177.6915         0.060242   
    355. D(O  13,C  14,Ni 12,N  11)     -1.1359         0.010000   
    356. D(O  13,C  14,Ni 12,C  10)    -11.4856         0.010000   
    357. D(C  23,N  16,C  14,O  13)      3.5998         0.024180   
    358. D(C  23,N  16,C  14,Ni 12)      2.7574         0.024180   
    359. D(C  17,N  16,C  14,O  15)      2.4597         0.024180   
    360. D(C  17,N  16,C  14,O  13)   -178.3818         0.024180   
    361. D(C  17,N  16,C  14,Ni 12)   -179.2242         0.024180   
    362. D(C  22,C  17,N  16,C  14)   -165.8022         0.026506   
    363. D(C  18,C  17,N  16,C  23)   -167.2853         0.026506   
    364. D(C  18,C  17,N  16,C  14)     14.8371         0.026506   
    365. D(C  22,C  17,N  16,C  23)     12.0754         0.026506   
    366. D(H  53,C  18,C  17,C  22)    179.3183         0.024790   
    367. D(H  53,C  18,C  17,N  16)     -1.2968         0.024790   
    368. D(C  19,C  18,C  17,C  22)      0.0874         0.024790   
    369. D(C  19,C  18,C  17,N  16)    179.4722         0.024790   
    370. D(H  54,C  19,C  18,H  53)      0.8976         0.029489   
    371. D(H  54,C  19,C  18,C  17)   -179.8830         0.029489   
    372. D(C  20,C  19,C  18,H  53)   -179.5261         0.029489   
    373. D(C  20,C  19,C  18,C  17)     -0.3068         0.029489   
    374. D(H  55,C  20,C  19,H  54)     -0.0746         0.027972   
    375. D(H  55,C  20,C  19,C  18)   -179.6484         0.027972   
    376. D(C  21,C  20,C  19,H  54)    179.8702         0.027972   
    377. D(C  21,C  20,C  19,C  18)      0.2964         0.027972   
    378. D(H  56,C  21,C  20,H  55)     -0.1542         0.028448   
    379. D(H  56,C  21,C  20,C  19)    179.9009         0.028448   
    380. D(C  22,C  21,C  20,H  55)    179.8715         0.028448   
    381. D(C  22,C  21,C  20,C  19)     -0.0734         0.028448   
    382. D(C  17,C  22,C  21,H  56)    179.8832         0.029030   
    383. D(C  17,C  22,C  21,C  20)     -0.1424         0.029030   
    384. D(H  57,C  22,C  17,C  18)    179.9081         0.024823   
    385. D(H  57,C  22,C  17,N  16)      0.5247         0.024823   
    386. D(C  21,C  22,C  17,C  18)      0.1344         0.024823   
    387. D(C  21,C  22,C  17,N  16)   -179.2490         0.024823   
    388. D(H  57,C  22,C  21,H  56)      0.1048         0.029030   
    389. D(H  57,C  22,C  21,C  20)   -179.9207         0.029030   
    390. D(H  58,C  23,N  16,C  17)    -63.0788         0.015078   
    391. D(C  24,C  23,N  16,C  17)     57.8475         0.015078   
    392. D(C  24,C  23,N  16,C  14)   -123.9988         0.015078   
    393. D(Ni 12,C  23,N  16,C  17)    177.7379         0.015078   
    394. D(Ni 12,C  23,N  16,C  14)     -4.1083         0.015078   
    395. D(H  58,C  23,Ni 12,O  13)   -116.3620         0.010000   
    396. D(H  58,C  23,Ni 12,C  10)     68.1995         0.010000   
    397. D(C  24,C  23,Ni 12,N  30)    -55.6831         0.010000   
    398. D(C  24,C  23,Ni 12,C  14)    123.8453         0.010000   
    399. D(C  24,C  23,Ni 12,O  13)    124.1984         0.010000   
    400. D(C  24,C  23,Ni 12,C  10)    -51.2402         0.010000   
    401. D(N  16,C  23,Ni 12,N  30)   -177.2532         0.010000   
    402. D(N  16,C  23,Ni 12,C  24)   -121.5701         0.010000   
    403. D(N  16,C  23,Ni 12,C  14)      2.2753         0.010000   
    404. D(N  16,C  23,Ni 12,O  13)      2.6283         0.010000   
    405. D(N  16,C  23,Ni 12,C  10)   -172.8103         0.010000   
    406. D(H  58,C  23,N  11,C  10)     67.8287         0.010000   
    407. D(H  58,C  23,N  11,C   6)   -115.9905         0.010000   
    408. D(C  24,C  23,N  11,C  10)    -50.9851         0.010000   
    409. D(C  24,C  23,N  11,C   6)    125.1956         0.010000   
    410. D(H  58,C  23,N  16,C  14)    115.0749         0.015078   
    411. D(N  16,C  23,N  11,C  10)   -172.7746         0.010000   
    412. D(N  16,C  23,N  11,C   6)      3.4061         0.010000   
    413. D(C  29,C  24,C  23,N  16)   -136.4778         0.014580   
    414. D(C  29,C  24,C  23,Ni 12)    102.2189         0.014580   
    415. D(C  25,C  24,C  23,N  16)     42.2908         0.014580   
    416. D(C  25,C  24,C  23,Ni 12)    -79.0124         0.014580   
    417. D(Ni 12,C  24,C  23,H  58)   -118.6750         0.014580   
    418. D(Ni 12,C  24,C  23,N  16)    121.3032         0.014580   
    419. D(C  25,C  24,Ni 12,C  23)    118.2565         0.010000   
    420. D(C  25,C  24,Ni 12,C  14)     71.6715         0.010000   
    421. D(C  25,C  24,Ni 12,O  13)     61.9410         0.010000   
    422. D(C  25,C  24,Ni 12,N  11)    -65.0255         0.010000   
    423. D(C  25,C  24,Ni 12,C  10)    -96.6427         0.010000   
    424. D(C  23,C  24,Ni 12,N  30)    125.1206         0.010000   
    425. D(C  23,C  24,Ni 12,C  14)    -46.5850         0.010000   
    426. D(C  25,C  24,C  23,H  58)    162.3126         0.014580   
    427. D(C  23,C  24,Ni 12,O  13)    -56.3155         0.010000   
    428. D(C  23,C  24,Ni 12,N  11)    176.7180         0.010000   
    429. D(C  23,C  24,Ni 12,C  10)    145.1008         0.010000   
    430. D(H  59,C  25,C  24,C  23)      0.3831         0.027405   
    431. D(H  59,C  25,C  24,Ni 12)    -41.6624         0.027405   
    432. D(C  26,C  25,C  24,C  29)     -1.2683         0.027405   
    433. D(C  26,C  25,C  24,C  23)    179.9158         0.027405   
    434. D(C  26,C  25,C  24,Ni 12)    137.8703         0.027405   
    435. D(H  60,C  26,C  25,H  59)     -0.1215         0.029281   
    436. D(H  60,C  26,C  25,C  24)   -179.6485         0.029281   
    437. D(C  27,C  26,C  25,H  59)    179.8291         0.029281   
    438. D(C  27,C  26,C  25,C  24)      0.3022         0.029281   
    439. D(H  61,C  27,C  26,H  60)      0.0388         0.027852   
    440. D(H  61,C  27,C  26,C  25)   -179.9118         0.027852   
    441. D(C  28,C  27,C  26,H  60)   -179.5782         0.027852   
    442. D(C  28,C  27,C  26,C  25)      0.4712         0.027852   
    443. D(H  62,C  28,C  27,H  61)     -0.1572         0.028236   
    444. D(H  62,C  28,C  27,C  26)    179.4595         0.028236   
    445. D(C  29,C  28,C  27,H  61)   -179.8581         0.028236   
    446. D(C  29,C  28,C  27,C  26)     -0.2414         0.028236   
    447. D(H  63,C  29,C  28,H  62)     -0.1949         0.029157   
    448. D(H  63,C  29,C  28,C  27)    179.5074         0.029157   
    449. D(C  24,C  29,C  28,H  62)    179.5310         0.029157   
    450. D(C  24,C  29,C  28,C  27)     -0.7666         0.029157   
    451. D(H  63,C  29,C  24,C  23)      0.0240         0.027695   
    452. D(H  63,C  29,C  24,Ni 12)     48.4939         0.027695   
    453. D(C  28,C  29,C  24,C  25)      1.5004         0.027695   
    454. D(C  28,C  29,C  24,C  23)   -179.7021         0.027695   
    455. D(C  28,C  29,C  24,Ni 12)   -131.2322         0.027695   
    456. D(C  31,N  30,O  13,C  14)     23.9768         0.010000   
    457. D(C  10,N  30,O  13,C  14)    174.4147         0.010000   
    458. D(C  31,N  30,Ni 12,C  24)     -1.6588         0.010000   
    459. D(C  31,N  30,Ni 12,C  23)     23.6221         0.010000   
    460. D(C  31,N  30,Ni 12,N  11)   -156.1806         0.010000   
    461. D(C  31,N  30,Ni 12,C  10)   -151.5983         0.010000   
    462. D(C  10,N  30,Ni 12,C  24)    149.9395         0.010000   
    463. D(C  10,N  30,Ni 12,C  23)    175.2205         0.010000   
    464. D(C  10,N  30,Ni 12,C  14)    174.0524         0.010000   
    465. D(C  10,N  30,Ni 12,N  11)     -4.5823         0.010000   
    466. D(C  31,N  30,Ni 12,C  14)     22.4541         0.010000   
    467. D(C  31,N  30,C  10,Ni 12)    163.2010         0.035923   
    468. D(C  31,N  30,C  10,N  11)    169.7227         0.035923   
    469. D(C  31,N  30,C  10,C   9)    -13.5533         0.035923   
    470. D(Ni 12,N  30,C  10,N  11)      6.5216         0.035923   
    471. D(Ni 12,N  30,C  10,C   9)   -176.7543         0.035923   
    472. D(C  38,C  31,N  30,Ni 12)     78.2094         0.026047   
    473. D(C  38,C  31,N  30,C  10)    -67.8555         0.026047   
    474. D(C  32,C  31,N  30,Ni 12)    -98.6948         0.026047   
    475. D(C  32,C  31,N  30,C  10)    115.2403         0.026047   
    476. D(C  34,C  32,C  31,C  38)      0.9977         0.024724   
    477. D(C  34,C  32,C  31,N  30)    177.9454         0.024724   
    478. D(C  33,C  32,C  31,C  38)   -179.6144         0.024724   
    479. D(C  33,C  32,C  31,N  30)     -2.6666         0.024724   
    480. D(H  66,C  33,C  32,C  31)    -82.2516         0.012918   
    481. D(H  65,C  33,C  32,C  34)    -23.2068         0.012918   
    482. D(H  65,C  33,C  32,C  31)    157.4160         0.012918   
    483. D(H  64,C  33,C  32,C  34)   -144.8344         0.012918   
    484. D(H  64,C  33,C  32,C  31)     35.7884         0.012918   
    485. D(H  67,C  34,C  32,C  33)      0.5764         0.028130   
    486. D(H  67,C  34,C  32,C  31)    179.9519         0.028130   
    487. D(C  35,C  34,C  32,C  33)   -179.4385         0.028130   
    488. D(C  35,C  34,C  32,C  31)     -0.0630         0.028130   
    489. D(C  37,C  35,C  34,H  67)    179.4079         0.027800   
    490. D(C  37,C  35,C  34,C  32)     -0.5771         0.027800   
    491. D(C  36,C  35,C  34,H  67)      0.2741         0.027800   
    492. D(C  36,C  35,C  34,C  32)   -179.7109         0.027800   
    493. D(H  70,C  36,C  35,C  34)    116.8729         0.012657   
    494. D(H  69,C  36,C  35,C  37)     56.9158         0.012657   
    495. D(H  69,C  36,C  35,C  34)   -123.9649         0.012657   
    496. D(H  68,C  36,C  35,C  37)    177.4953         0.012657   
    497. D(H  68,C  36,C  35,C  34)     -3.3854         0.012657   
    498. D(H  71,C  37,C  35,C  36)      0.3497         0.027349   
    499. D(H  71,C  37,C  35,C  34)   -178.7941         0.027349   
    500. D(C  38,C  37,C  35,C  36)    179.4256         0.027349   
    501. D(C  38,C  37,C  35,C  34)      0.2818         0.027349   
    502. D(C  39,C  38,C  37,H  71)      1.2676         0.028530   
    503. D(C  39,C  38,C  37,C  35)   -177.8089         0.028530   
    504. D(C  31,C  38,C  37,H  71)    179.7197         0.028530   
    505. D(C  31,C  38,C  37,C  35)      0.6433         0.028530   
    506. D(C  39,C  38,C  31,C  32)    177.1900         0.024170   
    507. D(C  39,C  38,C  31,N  30)      0.2930         0.024170   
    508. D(C  37,C  38,C  31,C  32)     -1.2792         0.024170   
    509. D(C  37,C  38,C  31,N  30)   -178.1763         0.024170   
    510. D(H  74,C  39,C  38,C  31)    -37.3804         0.013060   
    511. D(H  73,C  39,C  38,C  37)    -99.9563         0.013060   
    512. D(H  73,C  39,C  38,C  31)     81.6012         0.013060   
    513. D(H  72,C  39,C  38,C  37)     20.8923         0.013060   
    514. D(H  72,C  39,C  38,C  31)   -157.5502         0.013060   
    515. D(C  41,C  40,C   5,C   3)    177.7095         0.025395   
    516. D(C  42,C  40,C   5,C   6)    179.8179         0.025395   
    517. D(C  42,C  40,C   5,C   3)     -1.4494         0.025395   
    518. D(C  41,C  40,C   5,C   6)     -1.0233         0.025395   
    519. D(H  77,C  41,C  40,C   5)     50.1023         0.013099   
    520. D(H  76,C  41,C  40,C  42)    110.4722         0.013099   
    521. D(H  76,C  41,C  40,C   5)    -68.6757         0.013099   
    522. D(H  75,C  41,C  40,C  42)     -8.8173         0.013099   
    523. D(H  75,C  41,C  40,C   5)    172.0348         0.013099   
    524. D(H  78,C  42,C  40,C  41)      0.3408         0.028246   
    525. D(H  78,C  42,C  40,C   5)    179.5012         0.028246   
    526. D(C   1,C  42,C  40,C  41)   -178.4434         0.028246   
    527. D(C   1,C  42,C  40,C   5)      0.7170         0.028246   
    528. D(H  78,C  42,C   1,C   2)   -178.7048         0.027576   
    529. D(H  78,C  42,C   1,C   0)     -0.5247         0.027576   
    530. D(C  40,C  42,C   1,C   2)      0.0809         0.027576   
    531. D(C  40,C  42,C   1,C   0)    178.2609         0.027576   
    -----------------------------------------------------------------

Number of atoms                         .... 79
Number of degrees of freedom            .... 531


         *************************************************************
         *                GEOMETRY OPTIMIZATION CYCLE   1            *
         *************************************************************
---------------------------------
CARTESIAN COORDINATES (ANGSTROEM)
---------------------------------
  C     -4.177996   -1.058818   -4.829390
  C     -2.822175   -0.993855   -4.189316
  C     -2.312008    0.202989   -3.714911
  C     -1.045029    0.275795   -3.153260
  C     -0.509589    1.600365   -2.689145
  C     -0.276413   -0.882253   -3.054672
  C      1.080129   -0.837304   -2.457586
  C      1.273114   -0.528776   -1.114318
  C      2.569467   -0.524459   -0.603649
  C      3.636222   -0.828818   -1.413399
  C      3.394109   -1.161223   -2.766381
  N      2.088693   -1.134953   -3.254861
  Ni     2.908607   -1.547581   -4.867787
  O      1.470448   -1.489431   -5.972546
  C      1.560245   -1.699278   -7.232788
  O      0.608961   -1.707242   -7.994538
  N      2.887820   -1.937928   -7.625984
  C      3.338912   -2.168057   -8.912428
  C      2.534356   -1.885328  -10.024193
  C      2.991653   -2.106047  -11.306223
  C      4.262976   -2.608179  -11.533479
  C      5.067951   -2.891676  -10.444570
  C      4.620366   -2.679488   -9.155546
  C      3.818642   -1.970616   -6.491573
  C      4.920151   -0.981454   -6.677271
  C      4.643834    0.299553   -7.166798
  C      5.652496    1.224706   -7.341773
  C      6.965157    0.897146   -7.039785
  C      7.257613   -0.371716   -6.569491
  C      6.251629   -1.301183   -6.397752
  N      4.314574   -1.580563   -3.667453
  C      5.674545   -1.473023   -3.429786
  C      6.445550   -2.637390   -3.311344
  C      5.769990   -3.974048   -3.384687
  C      7.812759   -2.533662   -3.116327
  C      8.440363   -1.299990   -3.036333
  C      9.924637   -1.191064   -2.831131
  C      7.667809   -0.153823   -3.168623
  C      6.300931   -0.217412   -3.370285
  C      5.491777    1.028945   -3.559223
  C     -0.768286   -2.096107   -3.543739
  C      0.070891   -3.335169   -3.488351
  C     -2.036838   -2.133942   -4.096860
  H     -4.721512   -1.942755   -4.498128
  H     -4.069196   -1.118744   -5.912420
  H     -4.766034   -0.174154   -4.592613
  H     -2.904964    1.104985   -3.798272
  H     -0.605625    1.701703   -1.607278
  H     -1.057198    2.416686   -3.156313
  H      0.544162    1.694305   -2.942311
  H      0.425703   -0.317555   -0.480219
  H      2.733769   -0.286170    0.440534
  H      4.649556   -0.848888   -1.038226
  H      1.541629   -1.501958   -9.860774
  H      2.346552   -1.875603  -12.144254
  H      4.619800   -2.774519  -12.541023
  H      6.064463   -3.286311  -10.597709
  H      5.281034   -2.912938   -8.337623
  H      4.238958   -2.997296   -6.409877
  H      3.620539    0.560623   -7.401214
  H      5.416351    2.212278   -7.716416
  H      7.754250    1.624623   -7.176420
  H      8.279360   -0.641967   -6.338688
  H      6.496467   -2.290295   -6.037370
  H      4.949547   -3.931664   -4.100839
  H      6.472037   -4.754077   -3.673793
  H      5.343415   -4.234492   -2.414620
  H      8.401653   -3.438121   -3.024953
  H     10.372627   -2.174227   -2.702821
  H     10.148074   -0.589927   -1.949333
  H     10.392758   -0.707925   -3.689307
  H      8.149554    0.814912   -3.127624
  H      6.125195    1.854772   -3.876410
  H      4.985686    1.310825   -2.633700
  H      4.726509    0.858902   -4.319050
  H     -0.507221   -4.210276   -3.777465
  H      0.907657   -3.224183   -4.186751
  H      0.483008   -3.488809   -2.490686
  H     -2.417797   -3.069348   -4.483694

----------------------------
CARTESIAN COORDINATES (A.U.)
----------------------------
  NO LB      ZA    FRAG     MASS         X           Y           Z
   0 C     6.0000    0    12.011   -7.895268   -2.000876   -9.126224
   1 C     6.0000    0    12.011   -5.333138   -1.878114   -7.916660
   2 C     6.0000    0    12.011   -4.369062    0.383594   -7.020164
   3 C     6.0000    0    12.011   -1.974819    0.521177   -5.958798
   4 C     6.0000    0    12.011   -0.962984    3.024252   -5.081748
   5 C     6.0000    0    12.011   -0.522345   -1.667217   -5.772494
   6 C     6.0000    0    12.011    2.041148   -1.582275   -4.644164
   7 C     6.0000    0    12.011    2.405837   -0.999242   -2.105756
   8 C     6.0000    0    12.011    4.855589   -0.991084   -1.140731
   9 C     6.0000    0    12.011    6.871464   -1.566239   -2.670937
  10 C     6.0000    0    12.011    6.413936   -2.194393   -5.227702
  11 N     7.0000    0    14.007    3.947058   -2.144750   -6.150796
  12 Ni   28.0000    0    58.700    5.496471   -2.924504   -9.198784
  13 O     8.0000    0    15.999    2.778744   -2.814617  -11.286476
  14 C     6.0000    0    12.011    2.948436   -3.211170  -13.667989
  15 O     8.0000    0    15.999    1.150770   -3.226220  -15.107487
  16 N     7.0000    0    14.007    5.457189   -3.662153  -14.411021
  17 C     6.0000    0    12.011    6.309629   -4.097034  -16.842048
  18 C     6.0000    0    12.011    4.789239   -3.562754  -18.942979
  19 C     6.0000    0    12.011    5.653405   -3.979852  -21.365665
  20 C     6.0000    0    12.011    8.055857   -4.928744  -21.795117
  21 C     6.0000    0    12.011    9.577039   -5.464476  -19.737377
  22 C     6.0000    0    12.011    8.731226   -5.063498  -17.301475
  23 C     6.0000    0    12.011    7.216188   -3.723925  -12.267295
  24 C     6.0000    0    12.011    9.297738   -1.854679  -12.618214
  25 C     6.0000    0    12.011    8.775574    0.566073  -13.543285
  26 C     6.0000    0    12.011   10.681669    2.314359  -13.873940
  27 C     6.0000    0    12.011   13.162239    1.695360  -13.303266
  28 C     6.0000    0    12.011   13.714901   -0.702441  -12.414539
  29 C     6.0000    0    12.011   11.813867   -2.458880  -12.089999
  30 N     7.0000    0    14.007    8.153363   -2.986831   -6.930482
  31 C     6.0000    0    12.011   10.723336   -2.783610   -6.481356
  32 C     6.0000    0    12.011   12.180324   -4.983945   -6.257533
  33 C     6.0000    0    12.011   10.903701   -7.509862   -6.396131
  34 C     6.0000    0    12.011   14.763975   -4.787927   -5.889005
  35 C     6.0000    0    12.011   15.949975   -2.456625   -5.737838
  36 C     6.0000    0    12.011   18.754846   -2.250785   -5.350062
  37 C     6.0000    0    12.011   14.490059   -0.290683   -5.987830
  38 C     6.0000    0    12.011   11.907034   -0.410849   -6.368916
  39 C     6.0000    0    12.011   10.377955    1.944424   -6.725957
  40 C     6.0000    0    12.011   -1.451850   -3.961068   -6.696696
  41 C     6.0000    0    12.011    0.133965   -6.302556   -6.592028
  42 C     6.0000    0    12.011   -3.849066   -4.032566   -7.741943
  43 H     1.0000    0     1.008   -8.922365   -3.671275   -8.500230
  44 H     1.0000    0     1.008   -7.689666   -2.114120  -11.172855
  45 H     1.0000    0     1.008   -9.006499   -0.329103   -8.678781
  46 H     1.0000    0     1.008   -5.489586    2.088119   -7.177694
  47 H     1.0000    0     1.008   -1.144465    3.215753   -3.037315
  48 H     1.0000    0     1.008   -1.997815    4.566875   -5.964567
  49 H     1.0000    0     1.008    1.028317    3.201772   -5.560162
  50 H     1.0000    0     1.008    0.804462   -0.600092   -0.907482
  51 H     1.0000    0     1.008    5.166075   -0.540783    0.832489
  52 H     1.0000    0     1.008    8.786387   -1.604166   -1.961963
  53 H     1.0000    0     1.008    2.913257   -2.838289  -18.634162
  54 H     1.0000    0     1.008    4.434341   -3.544376  -22.949314
  55 H     1.0000    0     1.008    8.730157   -5.243081  -23.699099
  56 H     1.0000    0     1.008   11.460174   -6.210228  -20.026768
  57 H     1.0000    0     1.008    9.979708   -5.504655  -15.755824
  58 H     1.0000    0     1.008    8.010470   -5.664069  -12.112912
  59 H     1.0000    0     1.008    6.841827    1.059424  -13.986268
  60 H     1.0000    0     1.008   10.235420    4.180600  -14.581913
  61 H     1.0000    0     1.008   14.653409    3.070093  -13.561468
  62 H     1.0000    0     1.008   15.645723   -1.213142  -11.978384
  63 H     1.0000    0     1.008   12.276543   -4.328030  -11.408976
  64 H     1.0000    0     1.008    9.353288   -7.429768   -7.749463
  65 H     1.0000    0     1.008   12.230377   -8.983904   -6.942463
  66 H     1.0000    0     1.008   10.097591   -8.002030   -4.562971
  67 H     1.0000    0     1.008   15.876823   -6.497107   -5.716333
  68 H     1.0000    0     1.008   19.601424   -4.108694   -5.107591
  69 H     1.0000    0     1.008   19.177081   -1.114800   -3.683706
  70 H     1.0000    0     1.008   19.639466   -1.337784   -6.971780
  71 H     1.0000    0     1.008   15.400425    1.539961   -5.910353
  72 H     1.0000    0     1.008   11.574941    3.505011   -7.325353
  73 H     1.0000    0     1.008    9.421581    2.477100   -4.976972
  74 H     1.0000    0     1.008    8.931808    1.623090   -8.161822
  75 H     1.0000    0     1.008   -0.958509   -7.956269   -7.138374
  76 H     1.0000    0     1.008    1.715223   -6.092823   -7.911813
  77 H     1.0000    0     1.008    0.912753   -6.592894   -4.706714
  78 H     1.0000    0     1.008   -4.568974   -5.800227   -8.472954

--------------------------------
INTERNAL COORDINATES (ANGSTROEM)
--------------------------------
 C      0   0   0     0.000000000000     0.00000000     0.00000000
 C      1   0   0     1.500721660031     0.00000000     0.00000000
 C      2   1   0     1.384834297759   121.08757912     0.00000000
 C      3   2   1     1.387799821976   121.35265385   181.67950461
 C      4   3   2     1.502193200532   119.78211737   178.08489411
 C      4   3   2     1.393400631371   119.25009387   359.42719773
 C      6   4   3     1.482814318032   120.52638398   180.09634431
 C      7   6   4     1.391690215829   121.48271911    65.49167000
 C      8   7   6     1.393317108435   118.91206987   178.89500307
 C      9   8   7     1.373424804424   120.38987994   359.57491840
 C     10   9   8     1.414097620788   118.89535766   359.25031994
 N      7   6   4     1.319637713512   116.68431031   243.93387785
 Ni    12   7   6     1.855815485240   155.90945470     6.32705307
 O     13  12   7     1.814435223386    99.89661515     0.94315299
 C     14  13  12     1.280745549741   122.56802016   179.03533895
 O     15  14  13     1.218715609341   124.15128556   177.69149362
 N     15  14  13     1.404995479545   111.68206503   358.53296901
 C     17  15  14     1.382527220072   126.65401636   181.61817308
 C     18  17  15     1.401166463987   121.15623607    14.83710083
 C     19  18  17     1.378926518735   120.99596722   179.47224020
 C     20  19  18     1.385656525005   120.98105789   359.69321494
 C     21  20  19     1.383502117785   118.62024387     0.29643674
 C     22  21  20     1.380919603795   120.97192761   359.92661256
 C     17  15  14     1.467782823836   112.75014694     3.59977164
 C     24  17  15     1.492061421835   110.92949521   236.00123247
 C     25  24  17     1.398916259919   120.31834983    42.29083972
 C     26  25  24     1.379827291467   120.92776150   179.91579708
 C     27  26  25     1.386207490481   120.40845349     0.30215231
 C     28  27  26     1.384455753506   119.38056139     0.47123011
 C     29  28  27     1.380364805574   120.36070350   359.75861188
 N     11  10   9     1.354633751613   126.36004128   185.26609896
 C     31  11  10     1.384764086525   121.94623274   346.44672615
 C     32  31  11     1.401509089545   119.35772078   115.24026306
 C     33  32  31     1.499471613007   119.24889420   357.33335542
 C     33  32  31     1.384937391348   119.52206230   177.94540753
 C     35  33  32     1.386445968812   121.44267630   359.93696310
 C     36  35  33     1.502345513308   121.30685662   180.28908168
 C     36  35  33     1.388538483048   118.49862488   359.42289687
 C     38  36  35     1.383136504489   121.72079225     0.28178155
 C     39  38  36     1.497943101392   120.92824783   182.19109937
 C      6   4   3     1.398058336384   120.18342490     1.37961859
 C     41   6   4     1.497518115990   120.55058174   177.70945592
 C     41   6   4     1.384412693011   119.06980954   358.55061994
 H      1   2   3     1.089260655155   110.86811202   221.74455836
 H      1   2   3     1.090129600725   109.62998787   102.72099088
 H      1   2   3     1.088339299148   111.11008806   342.99105448
 H      3   2   1     1.082655373733   119.46511007     0.60908250
 H      5   4   3     1.090838443230   110.91308930   100.55979112
 H      5   4   3     1.088348074903   110.45083163   340.64785904
 H      5   4   3     1.087800035465   110.45821079   220.20053571
 H      8   7   6     1.079259586737   120.10565513     0.14939591
 H      9   8   7     1.083556612371   119.66685368   180.01319741
 H     10   9   8     1.080742050808   121.85094253   181.05115256
 H     19  18  17     1.076654644252   118.74152619   358.70320539
 H     20  19  18     1.082384263697   119.21628956   180.11699246
 H     21  20  19     1.081728835944   120.73906094   180.35160080
 H     22  21  20     1.082693171074   119.92655398   179.90088628
 H     23  22  21     1.077023278603   118.47423196   180.07927487
 H     24  17  15     1.112390038913   108.47772931   115.07492474
 H     26  25  24     1.081776808302   118.92511662     0.38312603
 H     27  26  25     1.082321714491   119.74821861   180.35150630
 H     28  27  26     1.081924059906   120.28146616   180.08818312
 H     29  28  27     1.081791366123   120.06302980   179.45948759
 H     30  29  28     1.080816071638   119.51229867   179.50742548
 H     34  33  32     1.089860911680   109.67184926    35.78839794
 H     34  33  32     1.088529976751   111.17403245   157.41599967
 H     34  33  32     1.091250334364   110.20533085   277.74844565
 H     35  33  32     1.083139618790   119.08254639   179.95186923
 H     37  36  35     1.088011020518   110.93995337   356.61461661
 H     37  36  35     1.090347421028   110.66442004   236.03513169
 H     37  36  35     1.090424968046   110.41185891   116.87291701
 H     38  36  35     1.082684932587   119.16990651   181.20592363
 H     40  39  38     1.088033174872   110.72156411    20.89232357
 H     40  39  38     1.091868700078   110.99365594   260.04365904
 H     40  39  38     1.091735683946   109.68415397   141.06206652
 H     42  41   6     1.087939635728   110.97377235   172.03482750
 H     42  41   6     1.095562773625   108.69954088   291.32433586
 H     42  41   6     1.090312397212   111.23840388    50.10232616
 H     43  41   6     1.081551981216   119.29403513   179.50118171

---------------------------
INTERNAL COORDINATES (A.U.)
---------------------------
 C      0   0   0     0.000000000000     0.00000000     0.00000000
 C      1   0   0     2.835952940702     0.00000000     0.00000000
 C      2   1   0     2.616957563626   121.08757912     0.00000000
 C      3   2   1     2.622561592240   121.35265385   181.67950461
 C      4   3   2     2.838733749244   119.78211737   178.08489411
 C      4   3   2     2.633145588123   119.25009387   359.42719773
 C      6   4   3     2.802112968538   120.52638398   180.09634431
 C      7   6   4     2.629913371174   121.48271911    65.49167000
 C      8   7   6     2.632987752650   118.91206987   178.89500307
 C      9   8   7     2.595396745895   120.38987994   359.57491840
 C     10   9   8     2.672257229919   118.89535766   359.25031994
 N      7   6   4     2.493753874531   116.68431031   243.93387785
 Ni    12   7   6     3.506983022193   155.90945470     6.32705307
 O     13  12   7     3.428785659939    99.89661515     0.94315299
 C     14  13  12     2.420258336249   122.56802016   179.03533895
 O     15  14  13     2.303038736790   124.15128556   177.69149362
 N     15  14  13     2.655056675737   111.68206503   358.53296901
 C     17  15  14     2.612597818628   126.65401636   181.61817308
 C     18  17  15     2.647820884970   121.15623607    14.83710083
 C     19  18  17     2.605793479210   120.99596722   179.47224020
 C     20  19  18     2.618511347941   120.98105789   359.69321494
 C     21  20  19     2.614440108313   118.62024387     0.29643674
 C     22  21  20     2.609559864135   120.97192761   359.92661256
 C     17  15  14     2.773707561124   112.75014694     3.59977164
 C     24  17  15     2.819587462258   110.92949521   236.00123247
 C     25  24  17     2.643568615537   120.31834983    42.29083972
 C     26  25  24     2.607495692984   120.92776150   179.91579708
 C     27  26  25     2.619552521799   120.40845349     0.30215231
 C     28  27  26     2.616242218658   119.38056139     0.47123011
 C     29  28  27     2.608511447437   120.36070350   359.75861188
 N     11  10   9     2.559886802315   126.36004128   185.26609896
 C     31  11  10     2.616824883622   121.94623274   346.44672615
 C     32  31  11     2.648468353442   119.35772078   115.24026306
 C     33  32  31     2.833590694172   119.24889420   357.33335542
 C     33  32  31     2.617152382275   119.52206230   177.94540753
 C     35  33  32     2.620003180534   121.44267630   359.93696310
 C     36  35  33     2.839021578677   121.30685662   180.28908168
 C     36  35  33     2.623957459371   118.49862488   359.42289687
 C     38  36  35     2.613749199313   121.72079225     0.28178155
 C     39  38  36     2.830702225828   120.92824783   182.19109937
 C      6   4   3     2.641947375012   120.18342490     1.37961859
 C     41   6   4     2.829899119806   120.55058174   177.70945592
 C     41   6   4     2.616160846115   119.06980954   358.55061994
 H      1   2   3     2.058404326699   110.86811202   221.74455836
 H      1   2   3     2.060046395850   109.62998787   102.72099088
 H      1   2   3     2.056663216173   111.11008806   342.99105448
 H      3   2   1     2.045922153774   119.46511007     0.60908250
 H      5   4   3     2.061385914058   110.91308930   100.55979112
 H      5   4   3     2.056679799948   110.45083163   340.64785904
 H      5   4   3     2.055644155498   110.45821079   220.20053571
 H      8   7   6     2.039505046341   120.10565513     0.14939591
 H      9   8   7     2.047625247982   119.66685368   180.01319741
 H     10   9   8     2.042306497440   121.85094253   181.05115256
 H     19  18  17     2.034582418451   118.74152619   358.70320539
 H     20  19  18     2.045409830053   119.21628956   180.11699246
 H     21  20  19     2.044171251099   120.73906094   180.35160080
 H     22  21  20     2.045993580396   119.92655398   179.90088628
 H     23  22  21     2.035279036418   118.47423196   180.07927487
 H     24  17  15     2.102112527647   108.47772931   115.07492474
 H     26  25  24     2.044261905719   118.92511662     0.38312603
 H     27  26  25     2.045291629183   119.74821861   180.35150630
 H     28  27  26     2.044540170922   120.28146616   180.08818312
 H     29  28  27     2.044289416014   120.06302980   179.45948759
 H     30  29  28     2.042446376537   119.51229867   179.50742548
 H     34  33  32     2.059538647142   109.67184926    35.78839794
 H     34  33  32     2.057023544623   111.17403245   157.41599967
 H     34  33  32     2.062164275498   110.20533085   277.74844565
 H     35  33  32     2.046837244313   119.08254639   179.95186923
 H     37  36  35     2.056042859468   110.93995337   356.61461661
 H     37  36  35     2.060458016570   110.66442004   236.03513169
 H     37  36  35     2.060604559197   110.41185891   116.87291701
 H     38  36  35     2.045978011912   119.16990651   181.20592363
 H     40  39  38     2.056084725129   110.72156411    20.89232357
 H     40  39  38     2.063332817348   110.99365594   260.04365904
 H     40  39  38     2.063081453288   109.68415397   141.06206652
 H     42  41   6     2.055907961765   110.97377235   172.03482750
 H     42  41   6     2.070313604670   108.69954088   291.32433586
 H     42  41   6     2.060391831150   111.23840388    50.10232616
 H     43  41   6     2.043837044099   119.29403513   179.50118171

---------------------
BASIS SET INFORMATION
---------------------
There are 5 groups of distinct atoms

 Group   1 Type C   : 11s6p1d contracted to 5s3p1d pattern {62111/411/1}
 Group   2 Type N   : 11s6p2d contracted to 5s3p2d pattern {62111/411/11}
 Group   3 Type Ni  : 17s11p6d contracted to 6s4p3d pattern {842111/6311/411}
 Group   4 Type O   : 11s6p2d contracted to 5s3p2d pattern {62111/411/11}
 Group   5 Type H   : 4s1p contracted to 2s1p pattern {31/1}

Atom   0C    basis set group =>   1
Atom   1C    basis set group =>   1
Atom   2C    basis set group =>   1
Atom   3C    basis set group =>   1
Atom   4C    basis set group =>   1
Atom   5C    basis set group =>   1
Atom   6C    basis set group =>   1
Atom   7C    basis set group =>   1
Atom   8C    basis set group =>   1
Atom   9C    basis set group =>   1
Atom  10C    basis set group =>   1
Atom  11N    basis set group =>   2
Atom  12Ni   basis set group =>   3
Atom  13O    basis set group =>   4
Atom  14C    basis set group =>   1
Atom  15O    basis set group =>   4
Atom  16N    basis set group =>   2
Atom  17C    basis set group =>   1
Atom  18C    basis set group =>   1
Atom  19C    basis set group =>   1
Atom  20C    basis set group =>   1
Atom  21C    basis set group =>   1
Atom  22C    basis set group =>   1
Atom  23C    basis set group =>   1
Atom  24C    basis set group =>   1
Atom  25C    basis set group =>   1
Atom  26C    basis set group =>   1
Atom  27C    basis set group =>   1
Atom  28C    basis set group =>   1
Atom  29C    basis set group =>   1
Atom  30N    basis set group =>   2
Atom  31C    basis set group =>   1
Atom  32C    basis set group =>   1
Atom  33C    basis set group =>   1
Atom  34C    basis set group =>   1
Atom  35C    basis set group =>   1
Atom  36C    basis set group =>   1
Atom  37C    basis set group =>   1
Atom  38C    basis set group =>   1
Atom  39C    basis set group =>   1
Atom  40C    basis set group =>   1
Atom  41C    basis set group =>   1
Atom  42C    basis set group =>   1
Atom  43H    basis set group =>   5
Atom  44H    basis set group =>   5
Atom  45H    basis set group =>   5
Atom  46H    basis set group =>   5
Atom  47H    basis set group =>   5
Atom  48H    basis set group =>   5
Atom  49H    basis set group =>   5
Atom  50H    basis set group =>   5
Atom  51H    basis set group =>   5
Atom  52H    basis set group =>   5
Atom  53H    basis set group =>   5
Atom  54H    basis set group =>   5
Atom  55H    basis set group =>   5
Atom  56H    basis set group =>   5
Atom  57H    basis set group =>   5
Atom  58H    basis set group =>   5
Atom  59H    basis set group =>   5
Atom  60H    basis set group =>   5
Atom  61H    basis set group =>   5
Atom  62H    basis set group =>   5
Atom  63H    basis set group =>   5
Atom  64H    basis set group =>   5
Atom  65H    basis set group =>   5
Atom  66H    basis set group =>   5
Atom  67H    basis set group =>   5
Atom  68H    basis set group =>   5
Atom  69H    basis set group =>   5
Atom  70H    basis set group =>   5
Atom  71H    basis set group =>   5
Atom  72H    basis set group =>   5
Atom  73H    basis set group =>   5
Atom  74H    basis set group =>   5
Atom  75H    basis set group =>   5
Atom  76H    basis set group =>   5
Atom  77H    basis set group =>   5
Atom  78H    basis set group =>   5
---------------------------------
AUXILIARY/J BASIS SET INFORMATION
---------------------------------
There are 5 groups of distinct atoms

 Group   1 Type C   : 8s3p3d contracted to 6s3p3d pattern {311111/111/111}
 Group   2 Type N   : 8s3p3d contracted to 6s3p3d pattern {311111/111/111}
 Group   3 Type Ni  : 19s5p5d3f3g contracted to 8s5p5d2f3g pattern {121111111/11111/11111/21/111}
 Group   4 Type O   : 8s3p3d contracted to 6s3p3d pattern {311111/111/111}
 Group   5 Type H   : 5s2p1d contracted to 3s1p1d pattern {311/2/1}

Atom   0C    basis set group =>   1
Atom   1C    basis set group =>   1
Atom   2C    basis set group =>   1
Atom   3C    basis set group =>   1
Atom   4C    basis set group =>   1
Atom   5C    basis set group =>   1
Atom   6C    basis set group =>   1
Atom   7C    basis set group =>   1
Atom   8C    basis set group =>   1
Atom   9C    basis set group =>   1
Atom  10C    basis set group =>   1
Atom  11N    basis set group =>   2
Atom  12Ni   basis set group =>   3
Atom  13O    basis set group =>   4
Atom  14C    basis set group =>   1
Atom  15O    basis set group =>   4
Atom  16N    basis set group =>   2
Atom  17C    basis set group =>   1
Atom  18C    basis set group =>   1
Atom  19C    basis set group =>   1
Atom  20C    basis set group =>   1
Atom  21C    basis set group =>   1
Atom  22C    basis set group =>   1
Atom  23C    basis set group =>   1
Atom  24C    basis set group =>   1
Atom  25C    basis set group =>   1
Atom  26C    basis set group =>   1
Atom  27C    basis set group =>   1
Atom  28C    basis set group =>   1
Atom  29C    basis set group =>   1
Atom  30N    basis set group =>   2
Atom  31C    basis set group =>   1
Atom  32C    basis set group =>   1
Atom  33C    basis set group =>   1
Atom  34C    basis set group =>   1
Atom  35C    basis set group =>   1
Atom  36C    basis set group =>   1
Atom  37C    basis set group =>   1
Atom  38C    basis set group =>   1
Atom  39C    basis set group =>   1
Atom  40C    basis set group =>   1
Atom  41C    basis set group =>   1
Atom  42C    basis set group =>   1
Atom  43H    basis set group =>   5
Atom  44H    basis set group =>   5
Atom  45H    basis set group =>   5
Atom  46H    basis set group =>   5
Atom  47H    basis set group =>   5
Atom  48H    basis set group =>   5
Atom  49H    basis set group =>   5
Atom  50H    basis set group =>   5
Atom  51H    basis set group =>   5
Atom  52H    basis set group =>   5
Atom  53H    basis set group =>   5
Atom  54H    basis set group =>   5
Atom  55H    basis set group =>   5
Atom  56H    basis set group =>   5
Atom  57H    basis set group =>   5
Atom  58H    basis set group =>   5
Atom  59H    basis set group =>   5
Atom  60H    basis set group =>   5
Atom  61H    basis set group =>   5
Atom  62H    basis set group =>   5
Atom  63H    basis set group =>   5
Atom  64H    basis set group =>   5
Atom  65H    basis set group =>   5
Atom  66H    basis set group =>   5
Atom  67H    basis set group =>   5
Atom  68H    basis set group =>   5
Atom  69H    basis set group =>   5
Atom  70H    basis set group =>   5
Atom  71H    basis set group =>   5
Atom  72H    basis set group =>   5
Atom  73H    basis set group =>   5
Atom  74H    basis set group =>   5
Atom  75H    basis set group =>   5
Atom  76H    basis set group =>   5
Atom  77H    basis set group =>   5
Atom  78H    basis set group =>   5
[file orca_main/main_util_tools.cpp, line 749]: Error : multiplicity (1) is odd and number of electrons (323) is odd -> impossible

