      -----------------------------------------------------------      
     |                   =====================                   |     
     |                           x T B                           |     
     |                   =====================                   |     
     |                         S. Grimme                         |     
     |          Mulliken Center for Theoretical Chemistry        |     
     |                    University of Bonn                     |     
      -----------------------------------------------------------      

   * xtb version 6.7.0 (08769fc) compiled by 'albert@albert-system' on 2024-03-04

   xtb is free software: you can redistribute it and/or modify it under
   the terms of the GNU Lesser General Public License as published by
   the Free Software Foundation, either version 3 of the License, or
   (at your option) any later version.
   
   xtb is distributed in the hope that it will be useful,
   but WITHOUT ANY WARRANTY; without even the implied warranty of
   MERCHANTABILITY or FITNESS FOR A PARTICULAR PURPOSE.  See the
   GNU Lesser General Public License for more details.
   
   Cite this work as:
   * C. Bannwarth, E. Caldeweyher, S. Ehlert, A. Hansen, P. Pracht,
     J. Seibert, S. Spicher, S. Grimme, WIREs Comput. Mol. Sci., 2020, 11,
     e01493. DOI: 10.1002/wcms.1493
   
   for GFN2-xTB:
   * C. Bannwarth, S. Ehlert and S. Grimme., J. Chem. Theory Comput., 2019,
     15, 1652-1671. DOI: 10.1021/acs.jctc.8b01176
   for GFN1-xTB:
   * S. Grimme, C. Bannwarth, P. Shushkov, J. Chem. Theory Comput., 2017,
     13, 1989-2009. DOI: 10.1021/acs.jctc.7b00118
   for GFN0-xTB:
   * P. Pracht, E. Caldeweyher, S. Ehlert, S. Grimme, ChemRxiv, 2019, preprint.
     DOI: 10.26434/chemrxiv.8326202.v1
   for GFN-FF:
   * S. Spicher and S. Grimme, Angew. Chem. Int. Ed., 2020, 59, 15665-15673.
     DOI: 10.1002/anie.202004239
   
   for ALPB and GBSA implicit solvation:
   * S. Ehlert, M. Stahn, S. Spicher, S. Grimme, J. Chem. Theory Comput.,
     2021, 17, 4250-4261. DOI: 10.1021/acs.jctc.1c00471
   
   for ddCOSMO and CPCM-X implicit solvation:
   * M. Stahn, S. Ehlert, S. Grimme, J. Phys. Chem. A,
     2023, XX, XXXX-XXXX. DOI: 10.1021/acs.jpca.3c04382
   
   for DFT-D4:
   * E. Caldeweyher, C. Bannwarth and S. Grimme, J. Chem. Phys., 2017,
     147, 034112. DOI: 10.1063/1.4993215
   * E. Caldeweyher, S. Ehlert, A. Hansen, H. Neugebauer, S. Spicher,
     C. Bannwarth and S. Grimme, J. Chem. Phys., 2019, 150, 154122.
     DOI: 10.1063/1.5090222
   * E. Caldeweyher, J.-M. Mewes, S. Ehlert and S. Grimme, Phys. Chem. Chem. Phys.
     2020, 22, 8499-8512. DOI: 10.1039/D0CP00502A
   
   for sTDA-xTB:
   * S. Grimme and C. Bannwarth, J. Chem. Phys., 2016, 145, 054103.
     DOI: 10.1063/1.4959605
   
   in the mass-spec context:
   * V. Asgeirsson, C. Bauer and S. Grimme, Chem. Sci., 2017, 8, 4879.
     DOI: 10.1039/c7sc00601b
   * J. Koopman and S. Grimme, ACS Omega 2019, 4, 12, 15120-15133.
     DOI: 10.1021/acsomega.9b02011
   
   for metadynamics refer to:
   * S. Grimme, J. Chem. Theory Comput., 2019, 155, 2847-2862
     DOI: 10.1021/acs.jctc.9b00143
   
   for SPH calculations refer to:
   * S. Spicher and S. Grimme, J. Chem. Theory Comput., 2021, 17, 1701-1714
     DOI: 10.1021/acs.jctc.0c01306
   
   for ONIOM refer to:
   * C. Plett, A. Katbashev, S. Ehlert, S. Grimme, M. Bursch,
     Phys. Chem. Chem. Phys., 2023, 25, 17860-17868. DOI: 10.1039/D3CP02178E
   
   for DIPRO refer to:
   * J. Kohn, N. Gildemeister, S. Grimme, D. Fazzi, A. Hansen,
     J. Chem. Phys., 2023, just accepted.
   
   for PTB refer to:
   * S. Grimme, M. Mueller, A. Hansen, J. Chem. Phys., 2023, 158, 124111.
     DOI: 10.1063/5.0137838
   
   with help from (in alphabetical order)
   P. Atkinson, C. Bannwarth, F. Bohle, G. Brandenburg, E. Caldeweyher
   M. Checinski, S. Dohm, S. Ehlert, S. Ehrlich, I. Gerasimov, C. Hölzer
   A. Katbashev, J. Kohn, J. Koopman, C. Lavigne, S. Lehtola, F. März, M. Müller,
   F. Musil, H. Neugebauer, J. Pisarek, C. Plett, P. Pracht, F. Pultar,
   J. Seibert, P. Shushkov, S. Spicher, M. Stahn, M. Steiner, T. Strunk,
   J. Stückrath, T. Rose, and J. Unsleber
   
 * started run on 2026/01/15 at 09:37:11.810     
   ID    Z sym.   atoms
    1    6 C      1-4, 6-11, 23, 27-30, 32, 34, 38, 40-42, 45-47
    2    7 N      5, 12, 24
    3    1 H      13-21, 25, 26, 35-37, 39, 43, 44, 48, 49
    4   28 Ni     22
    5    8 O      31, 33

           -------------------------------------------------
          |                Calculation Setup                |
           -------------------------------------------------

          program call               : xtb isomer1_embed_40.xyz --sp
          coordinate file            : isomer1_embed_40.xyz
          omp threads                :                    16


           -------------------------------------------------
          |                 G F N 2 - x T B                 |
           -------------------------------------------------

        Reference                      10.1021/acs.jctc.8b01176
      * Hamiltonian:
        H0-scaling (s, p, d)           1.850000    2.230000    2.230000
        zeta-weighting                 0.500000
      * Dispersion:
        s8                             2.700000
        a1                             0.520000
        a2                             5.000000
        s9                             5.000000
      * Repulsion:
        kExp                           1.500000    1.000000
        rExp                           1.000000
      * Coulomb:
        alpha                          2.000000
        third order                    shell-resolved
        anisotropic                    true
        a3                             3.000000
        a5                             4.000000
        cn-shift                       1.200000
        cn-exp                         4.000000
        max-rad                        5.000000

q/qsh data taken from xtbrestart
CAMM data taken from xtbrestart

          ...................................................
          :                      SETUP                      :
          :.................................................:
          :  # basis functions                 145          :
          :  # atomic orbitals                 144          :
          :  # shells                           80          :
          :  # electrons                       152          :
          :  max. iterations                   250          :
          :  Hamiltonian                  GFN2-xTB          :
          :  restarted?                       true          :
          :  GBSA solvation                  false          :
          :  PC potential                    false          :
          :  electronic temp.          300.0000000     K    :
          :  accuracy                    1.0000000          :
          :  -> integral cutoff          0.2500000E+02      :
          :  -> integral neglect         0.1000000E-07      :
          :  -> SCF convergence          0.1000000E-05 Eh   :
          :  -> wf. convergence          0.1000000E-03 e    :
          :  Broyden damping             0.4000000          :
          :  net charge                          0          :
          :  unpaired electrons                  0          :
          ...................................................

 iter      E             dE          RMSdq      gap      omega  full diag
   1    -84.0723452 -0.840723E+02  0.579E+00    0.58       0.0  T
   2    -84.0873511 -0.150058E-01  0.372E+00    0.56       1.0  T
   3    -83.9752952  0.112056E+00  0.148E+00    0.61       1.0  T
   4    -84.1018679 -0.126573E+00  0.519E-01    0.54       1.0  T
   5    -84.1022259 -0.358038E-03  0.263E-01    0.60       1.0  T
   6    -84.1035153 -0.128938E-02  0.129E-01    0.52       1.0  T
   7    -84.1037809 -0.265568E-03  0.692E-02    0.58       1.0  T
   8    -84.1037746  0.628576E-05  0.469E-02    0.56       1.0  T
   9    -84.1038050 -0.304419E-04  0.214E-02    0.57       1.0  T
  10    -84.1038117 -0.666643E-05  0.101E-02    0.57       1.4  T
  11    -84.1038125 -0.831293E-06  0.551E-03    0.57       2.6  T
  12    -84.1038131 -0.571523E-06  0.227E-03    0.57       6.3  T
  13    -84.1038131 -0.386768E-07  0.149E-03    0.57       9.6  T
  14    -84.1038132 -0.110104E-07  0.828E-04    0.57      17.3  T
  15    -84.1038132 -0.991423E-08  0.272E-04    0.57      52.6  T

   *** convergence criteria satisfied after 15 iterations ***

         #    Occupation            Energy/Eh            Energy/eV
      -------------------------------------------------------------
         1        2.0000           -0.7127800             -19.3957
       ...           ...                  ...                  ...
        70        2.0000           -0.3779878             -10.2856
        71        2.0000           -0.3740958             -10.1797
        72        2.0000           -0.3737089             -10.1691
        73        2.0000           -0.3644220              -9.9164
        74        2.0000           -0.3606829              -9.8147
        75        2.0000           -0.3543241              -9.6416
        76        2.0000           -0.3393106              -9.2331 (HOMO)
        77        0.0000           -0.3182994              -8.6614 (LUMO)
        78                         -0.2884880              -7.8502
        79                         -0.2829202              -7.6987
        80                         -0.2557264              -6.9587
        81                         -0.2424719              -6.5980
       ...                                ...                  ...
       144                          1.5455561              42.0567
      -------------------------------------------------------------
                  HL-Gap            0.0210113 Eh            0.5717 eV
             Fermi-level           -0.3288050 Eh           -8.9472 eV

 SCC (total)                   0 d,  0 h,  0 min,  0.063 sec
 SCC setup                      ...        0 min,  0.000 sec (  0.632%)
 Dispersion                     ...        0 min,  0.001 sec (  1.464%)
 classical contributions        ...        0 min,  0.000 sec (  0.102%)
 integral evaluation            ...        0 min,  0.005 sec (  8.053%)
 iterations                     ...        0 min,  0.049 sec ( 78.348%)
 molecular gradient             ...        0 min,  0.007 sec ( 10.432%)
 printout                       ...        0 min,  0.001 sec (  0.902%)

         :::::::::::::::::::::::::::::::::::::::::::::::::::::
         ::                     SUMMARY                     ::
         :::::::::::::::::::::::::::::::::::::::::::::::::::::
         :: total energy             -82.830545501515 Eh    ::
         :: gradient norm              0.026124443957 Eh/a0 ::
         :: HOMO-LUMO gap              0.571745821482 eV    ::
         ::.................................................::
         :: SCC energy               -84.102549152837 Eh    ::
         :: -> isotropic ES            0.095798535217 Eh    ::
         :: -> anisotropic ES          0.001792010425 Eh    ::
         :: -> anisotropic XC          0.035628431900 Eh    ::
         :: -> dispersion             -0.068474374143 Eh    ::
         :: repulsion energy           1.272003651322 Eh    ::
         :: add. restraining           0.000000000000 Eh    ::
         :: total charge               0.000000000004 e     ::
         :::::::::::::::::::::::::::::::::::::::::::::::::::::

           -------------------------------------------------
          |                Property Printout                |
           -------------------------------------------------

    * Orbital Energies and Occupations

         #    Occupation            Energy/Eh            Energy/eV
      -------------------------------------------------------------
         1        2.0000           -0.7127800             -19.3957
       ...           ...                  ...                  ...
        64        2.0000           -0.4059220             -11.0457
        65        2.0000           -0.4038329             -10.9889
        66        2.0000           -0.4035977             -10.9825
        67        2.0000           -0.4017259             -10.9315
        68        2.0000           -0.3906937             -10.6313
        69        2.0000           -0.3788880             -10.3101
        70        2.0000           -0.3779878             -10.2856
        71        2.0000           -0.3740958             -10.1797
        72        2.0000           -0.3737089             -10.1691
        73        2.0000           -0.3644220              -9.9164
        74        2.0000           -0.3606829              -9.8147
        75        2.0000           -0.3543241              -9.6416
        76        2.0000           -0.3393106              -9.2331 (HOMO)
        77        0.0000           -0.3182994              -8.6614 (LUMO)
        78                         -0.2884880              -7.8502
        79                         -0.2829202              -7.6987
        80                         -0.2557264              -6.9587
        81                         -0.2424719              -6.5980
        82                         -0.2205478              -6.0014
        83                         -0.2107557              -5.7350
        84                         -0.1953135              -5.3148
        85                         -0.1942083              -5.2847
        86                         -0.1649760              -4.4892
        87                         -0.1321874              -3.5970
       ...                                ...                  ...
       144                          1.5455561              42.0567
      -------------------------------------------------------------
                  HL-Gap            0.0210113 Eh            0.5717 eV
             Fermi-level           -0.3288050 Eh           -8.9472 eV

     #   Z          covCN         q      C6AA      α(0)
     1   6 C        2.915    -0.029    28.720     8.788
     2   6 C        2.924    -0.008    28.225     8.712
     3   6 C        2.915    -0.036    28.904     8.816
     4   6 C        2.996     0.079    26.237     8.402
     5   7 N        2.647     0.002    21.230     6.843
     6   6 C        2.889     0.058    26.700     8.472
     7   6 C        3.009     0.081    26.183     8.394
     8   6 C        2.919    -0.037    28.913     8.818
     9   6 C        2.923    -0.010    28.266     8.719
    10   6 C        2.917    -0.031    28.782     8.798
    11   6 C        2.896     0.046    26.962     8.514
    12   7 N        2.639    -0.018    21.600     6.902
    13   1 H        0.926     0.061     2.192     2.315
    14   1 H        0.926     0.053     2.282     2.362
    15   1 H        0.926     0.049     2.336     2.390
    16   1 H        0.925     0.115     1.652     2.010
    17   1 H        0.926     0.054     2.275     2.359
    18   1 H        0.926     0.056     2.246     2.343
    19   1 H        0.926     0.060     2.195     2.317
    20   1 H        0.926     0.087     1.910     2.161
    21   1 H        0.926     0.025     2.665     2.553
    22  28 Ni       3.365    -0.280   189.122    28.376
    23   6 C        3.692     0.041    20.067     6.410
    24   7 N        2.754    -0.125    23.709     7.232
    25   1 H        0.922     0.054     2.268     2.355
    26   1 H        0.925     0.027     2.630     2.536
    27   6 C        2.983     0.023    27.493     8.601
    28   6 C        2.674     0.415    20.015     7.321
    29   6 C        2.925    -0.024    28.601     8.770
    30   6 C        2.910     0.074    26.347     8.417
    31   8 O        1.600    -0.329    19.561     5.969
    32   6 C        2.920    -0.029    28.735     8.791
    33   8 O        0.857    -0.474    23.225     6.461
    34   6 C        2.924    -0.044    29.088     8.845
    35   1 H        0.926     0.058     2.218     2.329
    36   1 H        0.926     0.029     2.599     2.521
    37   1 H        0.925     0.060     2.205     2.322
    38   6 C        2.922    -0.041    29.011     8.833
    39   1 H        0.926     0.029     2.598     2.520
    40   6 C        2.918    -0.031    28.773     8.796
    41   6 C        2.918    -0.032    28.804     8.801
    42   6 C        2.920    -0.033    28.830     8.805
    43   1 H        0.926     0.031     2.573     2.508
    44   1 H        0.926     0.023     2.690     2.565
    45   6 C        2.920    -0.034    28.850     8.808
    46   6 C        2.919    -0.041    29.028     8.835
    47   6 C        2.924    -0.052    29.297     8.876
    48   1 H        0.926     0.022     2.701     2.570
    49   1 H        0.926     0.029     2.599     2.521

 Mol. C6AA /au·bohr⁶  :      36678.351693
 Mol. C8AA /au·bohr⁸  :    1015964.038848
 Mol. α(0) /au        :        312.679915


Wiberg/Mayer (AO) data.
largest (>0.10) Wiberg bond orders for each atom

 ---------------------------------------------------------------------------
     #   Z sym  total        # sym  WBO       # sym  WBO       # sym  WBO
 ---------------------------------------------------------------------------
     1   6 C    3.977 --     2 C    1.427     6 C    1.421    13 H    0.968
     2   6 C    3.985 --     3 C    1.447     1 C    1.427    14 H    0.969
     3   6 C    3.989 --     2 C    1.447     4 C    1.380    15 H    0.963
                             6 C    0.102
     4   6 C    3.979 --     3 C    1.380     5 N    1.305     7 C    1.060
     5   7 N    3.529 --     6 C    1.401     4 C    1.305    22 Ni   0.556
     6   6 C    3.966 --     1 C    1.421     5 N    1.401    16 H    0.937
                             3 C    0.102
     7   6 C    3.978 --     8 C    1.387    12 N    1.287     4 C    1.060
     8   6 C    3.989 --     9 C    1.446     7 C    1.387    17 H    0.962
     9   6 C    3.980 --     8 C    1.446    10 C    1.416    18 H    0.968
    10   6 C    3.978 --    11 C    1.435     9 C    1.416    19 H    0.968
    11   6 C    3.972 --    10 C    1.435    12 N    1.383    20 H    0.940
    12   7 N    3.543 --    11 C    1.383     7 C    1.287    22 Ni   0.604
    13   1 H    0.996 --     1 C    0.968
    14   1 H    0.996 --     2 C    0.969
    15   1 H    0.997 --     3 C    0.963
    16   1 H    0.986 --     6 C    0.937
    17   1 H    0.997 --     8 C    0.962
    18   1 H    0.996 --     9 C    0.968
    19   1 H    0.996 --    10 C    0.968
    20   1 H    0.992 --    11 C    0.940
    21   1 H    0.999 --    47 C    0.965
    22  28 Ni   3.531 --    23 C    0.858    31 O    0.780    12 N    0.604
                             5 N    0.556
    23   6 C    3.932 --    27 C    0.995    24 N    0.940    25 H    0.886
                            22 Ni   0.858
    24   7 N    3.474 --    28 C    1.074    30 C    1.073    23 C    0.940
                            33 O    0.126
    25   1 H    0.995 --    23 C    0.886
    26   1 H    0.999 --    38 C    0.965
    27   6 C    3.988 --    38 C    1.386    29 C    1.367    23 C    0.995
                            45 C    0.104
    28   6 C    3.943 --    33 O    1.605    31 O    1.176    24 N    1.074
    29   6 C    3.992 --    40 C    1.460    27 C    1.367    37 H    0.937
                            41 C    0.108
    30   6 C    3.967 --    47 C    1.366    34 C    1.362    24 N    1.073
    31   8 O    2.346 --    28 C    1.176    22 Ni   0.780    33 O    0.137
    32   6 C    3.991 --    34 C    1.460    46 C    1.427    36 H    0.971
                            47 C    0.104
    33   8 O    1.970 --    28 C    1.605    31 O    0.137    24 N    0.126
    34   6 C    3.986 --    32 C    1.460    30 C    1.362    35 H    0.965
                            42 C    0.107
    35   1 H    0.997 --    34 C    0.965
    36   1 H    0.999 --    32 C    0.971
    37   1 H    0.996 --    29 C    0.937
    38   6 C    3.986 --    41 C    1.442    27 C    1.386    26 H    0.965
                            40 C    0.105
    39   1 H    0.998 --    41 C    0.971
    40   6 C    3.992 --    29 C    1.460    45 C    1.424    43 H    0.971
                            38 C    0.105
    41   6 C    3.991 --    38 C    1.442    45 C    1.440    39 H    0.971
                            29 C    0.108
    42   6 C    3.992 --    47 C    1.453    46 C    1.433    48 H    0.971
                            34 C    0.107
    43   1 H    0.999 --    40 C    0.971
    44   1 H    0.999 --    46 C    0.972
    45   6 C    3.987 --    41 C    1.440    40 C    1.424    49 H    0.972
                            27 C    0.104
    46   6 C    3.986 --    42 C    1.433    32 C    1.427    44 H    0.972
    47   6 C    3.986 --    42 C    1.453    30 C    1.366    21 H    0.965
                            32 C    0.104
    48   1 H    0.999 --    42 C    0.971
    49   1 H    0.999 --    45 C    0.972
 ---------------------------------------------------------------------------

Topologies differ in total number of bonds
Writing topology from bond orders to xtbtopo.mol

molecular dipole:
                 x           y           z       tot (Debye)
 q only:       -2.399       3.570       2.115
   full:       -2.608       4.172       2.504      14.032
molecular quadrupole (traceless):
                xx          xy          yy          xz          yz          zz
 q only:      -67.216      -4.674      81.070      12.136      60.362     -13.854
  q+dip:      -75.249      -1.670      91.476      19.122      73.641     -16.227
   full:      -79.498      -2.237      93.520      15.732      70.080     -14.022


           -------------------------------------------------
          | TOTAL ENERGY              -82.830545501515 Eh   |
          | GRADIENT NORM               0.026124443957 Eh/α |
          | HOMO-LUMO GAP               0.571745821482 eV   |
           -------------------------------------------------

------------------------------------------------------------------------
 * finished run on 2026/01/15 at 09:37:11.889     
------------------------------------------------------------------------
 total:
 * wall-time:     0 d,  0 h,  0 min,  0.078 sec
 *  cpu-time:     0 d,  0 h,  0 min,  1.178 sec
 * ratio c/w:    15.069 speedup
 SCF:
 * wall-time:     0 d,  0 h,  0 min,  0.063 sec
 *  cpu-time:     0 d,  0 h,  0 min,  0.989 sec
 * ratio c/w:    15.749 speedup

