      -----------------------------------------------------------      
     |                   =====================                   |     
     |                           x T B                           |     
     |                   =====================                   |     
     |                         S. Grimme                         |     
     |          Mulliken Center for Theoretical Chemistry        |     
     |                    University of Bonn                     |     
      -----------------------------------------------------------      

   * xtb version 6.7.0 (08769fc) compiled by 'albert@albert-system' on 2024-03-04

   xtb is free software: you can redistribute it and/or modify it under
   the terms of the GNU Lesser General Public License as published by
   the Free Software Foundation, either version 3 of the License, or
   (at your option) any later version.
   
   xtb is distributed in the hope that it will be useful,
   but WITHOUT ANY WARRANTY; without even the implied warranty of
   MERCHANTABILITY or FITNESS FOR A PARTICULAR PURPOSE.  See the
   GNU Lesser General Public License for more details.
   
   Cite this work as:
   * C. Bannwarth, E. Caldeweyher, S. Ehlert, A. Hansen, P. Pracht,
     J. Seibert, S. Spicher, S. Grimme, WIREs Comput. Mol. Sci., 2020, 11,
     e01493. DOI: 10.1002/wcms.1493
   
   for GFN2-xTB:
   * C. Bannwarth, S. Ehlert and S. Grimme., J. Chem. Theory Comput., 2019,
     15, 1652-1671. DOI: 10.1021/acs.jctc.8b01176
   for GFN1-xTB:
   * S. Grimme, C. Bannwarth, P. Shushkov, J. Chem. Theory Comput., 2017,
     13, 1989-2009. DOI: 10.1021/acs.jctc.7b00118
   for GFN0-xTB:
   * P. Pracht, E. Caldeweyher, S. Ehlert, S. Grimme, ChemRxiv, 2019, preprint.
     DOI: 10.26434/chemrxiv.8326202.v1
   for GFN-FF:
   * S. Spicher and S. Grimme, Angew. Chem. Int. Ed., 2020, 59, 15665-15673.
     DOI: 10.1002/anie.202004239
   
   for ALPB and GBSA implicit solvation:
   * S. Ehlert, M. Stahn, S. Spicher, S. Grimme, J. Chem. Theory Comput.,
     2021, 17, 4250-4261. DOI: 10.1021/acs.jctc.1c00471
   
   for ddCOSMO and CPCM-X implicit solvation:
   * M. Stahn, S. Ehlert, S. Grimme, J. Phys. Chem. A,
     2023, XX, XXXX-XXXX. DOI: 10.1021/acs.jpca.3c04382
   
   for DFT-D4:
   * E. Caldeweyher, C. Bannwarth and S. Grimme, J. Chem. Phys., 2017,
     147, 034112. DOI: 10.1063/1.4993215
   * E. Caldeweyher, S. Ehlert, A. Hansen, H. Neugebauer, S. Spicher,
     C. Bannwarth and S. Grimme, J. Chem. Phys., 2019, 150, 154122.
     DOI: 10.1063/1.5090222
   * E. Caldeweyher, J.-M. Mewes, S. Ehlert and S. Grimme, Phys. Chem. Chem. Phys.
     2020, 22, 8499-8512. DOI: 10.1039/D0CP00502A
   
   for sTDA-xTB:
   * S. Grimme and C. Bannwarth, J. Chem. Phys., 2016, 145, 054103.
     DOI: 10.1063/1.4959605
   
   in the mass-spec context:
   * V. Asgeirsson, C. Bauer and S. Grimme, Chem. Sci., 2017, 8, 4879.
     DOI: 10.1039/c7sc00601b
   * J. Koopman and S. Grimme, ACS Omega 2019, 4, 12, 15120-15133.
     DOI: 10.1021/acsomega.9b02011
   
   for metadynamics refer to:
   * S. Grimme, J. Chem. Theory Comput., 2019, 155, 2847-2862
     DOI: 10.1021/acs.jctc.9b00143
   
   for SPH calculations refer to:
   * S. Spicher and S. Grimme, J. Chem. Theory Comput., 2021, 17, 1701-1714
     DOI: 10.1021/acs.jctc.0c01306
   
   for ONIOM refer to:
   * C. Plett, A. Katbashev, S. Ehlert, S. Grimme, M. Bursch,
     Phys. Chem. Chem. Phys., 2023, 25, 17860-17868. DOI: 10.1039/D3CP02178E
   
   for DIPRO refer to:
   * J. Kohn, N. Gildemeister, S. Grimme, D. Fazzi, A. Hansen,
     J. Chem. Phys., 2023, just accepted.
   
   for PTB refer to:
   * S. Grimme, M. Mueller, A. Hansen, J. Chem. Phys., 2023, 158, 124111.
     DOI: 10.1063/5.0137838
   
   with help from (in alphabetical order)
   P. Atkinson, C. Bannwarth, F. Bohle, G. Brandenburg, E. Caldeweyher
   M. Checinski, S. Dohm, S. Ehlert, S. Ehrlich, I. Gerasimov, C. Hölzer
   A. Katbashev, J. Kohn, J. Koopman, C. Lavigne, S. Lehtola, F. März, M. Müller,
   F. Musil, H. Neugebauer, J. Pisarek, C. Plett, P. Pracht, F. Pultar,
   J. Seibert, P. Shushkov, S. Spicher, M. Stahn, M. Steiner, T. Strunk,
   J. Stückrath, T. Rose, and J. Unsleber
   
 * started run on 2026/01/15 at 09:37:09.676     
   ID    Z sym.   atoms
    1    6 C      1-4, 6-11, 23, 27-30, 32, 34, 38, 40-42, 45-47
    2    7 N      5, 12, 24
    3    1 H      13-21, 25, 26, 35-37, 39, 43, 44, 48, 49
    4   28 Ni     22
    5    8 O      31, 33

           -------------------------------------------------
          |                Calculation Setup                |
           -------------------------------------------------

          program call               : xtb isomer1_embed_24.xyz --sp
          coordinate file            : isomer1_embed_24.xyz
          omp threads                :                    16


molecular fragmentation (1/2 indicates fragments):
1111111111111111111111111112112121111111111111111
# atoms in fragment 1/2:    46     3
 fragment masses (1/2) :      396.11       44.01
CMA distance (Bohr)    :   7.201
constraining FC (au)   :  0.0500

           -------------------------------------------------
          |                 G F N 2 - x T B                 |
           -------------------------------------------------

        Reference                      10.1021/acs.jctc.8b01176
      * Hamiltonian:
        H0-scaling (s, p, d)           1.850000    2.230000    2.230000
        zeta-weighting                 0.500000
      * Dispersion:
        s8                             2.700000
        a1                             0.520000
        a2                             5.000000
        s9                             5.000000
      * Repulsion:
        kExp                           1.500000    1.000000
        rExp                           1.000000
      * Coulomb:
        alpha                          2.000000
        third order                    shell-resolved
        anisotropic                    true
        a3                             3.000000
        a5                             4.000000
        cn-shift                       1.200000
        cn-exp                         4.000000
        max-rad                        5.000000

q/qsh data taken from xtbrestart
CAMM data taken from xtbrestart

          ...................................................
          :                      SETUP                      :
          :.................................................:
          :  # basis functions                 145          :
          :  # atomic orbitals                 144          :
          :  # shells                           80          :
          :  # electrons                       152          :
          :  max. iterations                   250          :
          :  Hamiltonian                  GFN2-xTB          :
          :  restarted?                       true          :
          :  GBSA solvation                  false          :
          :  PC potential                    false          :
          :  electronic temp.          300.0000000     K    :
          :  accuracy                    1.0000000          :
          :  -> integral cutoff          0.2500000E+02      :
          :  -> integral neglect         0.1000000E-07      :
          :  -> SCF convergence          0.1000000E-05 Eh   :
          :  -> wf. convergence          0.1000000E-03 e    :
          :  Broyden damping             0.4000000          :
          :  net charge                          0          :
          :  unpaired electrons                  0          :
          ...................................................

 iter      E             dE          RMSdq      gap      omega  full diag
   1    -84.0449904 -0.840450E+02  0.380E+00    1.30       0.0  T
   2    -84.0649887 -0.199983E-01  0.234E+00    1.70       1.0  T
   3    -84.0583433  0.664543E-02  0.701E-01    1.48       1.0  T
   4    -84.0705448 -0.122015E-01  0.372E-01    1.67       1.0  T
   5    -84.0708420 -0.297231E-03  0.257E-01    1.63       1.0  T
   6    -84.0719653 -0.112332E-02  0.140E-01    1.65       1.0  T
   7    -84.0723276 -0.362251E-03  0.765E-02    1.65       1.0  T
   8    -84.0724404 -0.112856E-03  0.425E-02    1.65       1.0  T
   9    -84.0724483 -0.792254E-05  0.266E-02    1.65       1.0  T
  10    -84.0724618 -0.134750E-04  0.123E-02    1.65       1.2  T
  11    -84.0724640 -0.218277E-05  0.656E-03    1.65       2.2  T
  12    -84.0724647 -0.656908E-06  0.370E-03    1.65       3.9  T
  13    -84.0724648 -0.100403E-06  0.208E-03    1.65       6.9  T
  14    -84.0724648 -0.564604E-07  0.114E-03    1.65      12.5  T
  15    -84.0724648 -0.921300E-08  0.607E-04    1.65      23.5  T
  16    -84.0724648 -0.618252E-08  0.255E-04    1.65      56.0  T

   *** convergence criteria satisfied after 16 iterations ***

         #    Occupation            Energy/Eh            Energy/eV
      -------------------------------------------------------------
         1        2.0000           -0.8021433             -21.8274
       ...           ...                  ...                  ...
        70        2.0000           -0.3864061             -10.5146
        71        2.0000           -0.3858880             -10.5005
        72        2.0000           -0.3726066             -10.1391
        73        2.0000           -0.3656136              -9.9489
        74        2.0000           -0.3568148              -9.7094
        75        2.0000           -0.3375983              -9.1865
        76        2.0000           -0.3220352              -8.7630 (HOMO)
        77                         -0.2613490              -7.1117 (LUMO)
        78                         -0.2590590              -7.0494
        79                         -0.2563568              -6.9758
        80                         -0.2545116              -6.9256
        81                         -0.2377850              -6.4705
       ...                                ...                  ...
       144                          1.7386662              47.3115
      -------------------------------------------------------------
                  HL-Gap            0.0606862 Eh            1.6514 eV
             Fermi-level           -0.2916921 Eh           -7.9373 eV

 SCC (total)                   0 d,  0 h,  0 min,  0.113 sec
 SCC setup                      ...        0 min,  0.000 sec (  0.351%)
 Dispersion                     ...        0 min,  0.001 sec (  0.881%)
 classical contributions        ...        0 min,  0.000 sec (  0.135%)
 integral evaluation            ...        0 min,  0.006 sec (  5.187%)
 iterations                     ...        0 min,  0.098 sec ( 87.023%)
 molecular gradient             ...        0 min,  0.007 sec (  5.969%)
 printout                       ...        0 min,  0.000 sec (  0.414%)

         :::::::::::::::::::::::::::::::::::::::::::::::::::::
         ::                     SUMMARY                     ::
         :::::::::::::::::::::::::::::::::::::::::::::::::::::
         :: total energy             -82.724430657499 Eh    ::
         :: gradient norm              0.125089351717 Eh/a0 ::
         :: HOMO-LUMO gap              1.651355139667 eV    ::
         ::.................................................::
         :: SCC energy               -84.070520644207 Eh    ::
         :: -> isotropic ES            0.060115333124 Eh    ::
         :: -> anisotropic ES          0.008860112458 Eh    ::
         :: -> anisotropic XC          0.043341623194 Eh    ::
         :: -> dispersion             -0.076019644409 Eh    ::
         :: repulsion energy           1.346089986708 Eh    ::
         :: add. restraining           0.000000000000 Eh    ::
         :: total charge              -0.000000000000 e     ::
         :::::::::::::::::::::::::::::::::::::::::::::::::::::

           -------------------------------------------------
          |                Property Printout                |
           -------------------------------------------------

    * Orbital Energies and Occupations

         #    Occupation            Energy/Eh            Energy/eV
      -------------------------------------------------------------
         1        2.0000           -0.8021433             -21.8274
       ...           ...                  ...                  ...
        64        2.0000           -0.4112064             -11.1895
        65        2.0000           -0.4080293             -11.1030
        66        2.0000           -0.4018581             -10.9351
        67        2.0000           -0.4004312             -10.8963
        68        2.0000           -0.3982731             -10.8376
        69        2.0000           -0.3939480             -10.7199
        70        2.0000           -0.3864061             -10.5146
        71        2.0000           -0.3858880             -10.5005
        72        2.0000           -0.3726066             -10.1391
        73        2.0000           -0.3656136              -9.9489
        74        2.0000           -0.3568148              -9.7094
        75        2.0000           -0.3375983              -9.1865
        76        2.0000           -0.3220352              -8.7630 (HOMO)
        77                         -0.2613490              -7.1117 (LUMO)
        78                         -0.2590590              -7.0494
        79                         -0.2563568              -6.9758
        80                         -0.2545116              -6.9256
        81                         -0.2377850              -6.4705
        82                         -0.2342902              -6.3754
        83                         -0.2200785              -5.9886
        84                         -0.2163267              -5.8866
        85                         -0.2122438              -5.7754
        86                         -0.2034797              -5.5370
        87                         -0.1985503              -5.4028
       ...                                ...                  ...
       144                          1.7386662              47.3115
      -------------------------------------------------------------
                  HL-Gap            0.0606862 Eh            1.6514 eV
             Fermi-level           -0.2916921 Eh           -7.9373 eV

     #   Z          covCN         q      C6AA      α(0)
     1   6 C        2.915    -0.040    28.994     8.830
     2   6 C        2.932    -0.009    28.239     8.715
     3   6 C        2.912    -0.034    28.858     8.809
     4   6 C        2.848     0.116    25.441     8.267
     5   7 N        2.622    -0.065    22.506     7.046
     6   6 C        2.886     0.047    26.954     8.512
     7   6 C        2.853     0.120    25.367     8.255
     8   6 C        2.912    -0.032    28.800     8.800
     9   6 C        2.934    -0.009    28.242     8.716
    10   6 C        2.915    -0.040    28.997     8.830
    11   6 C        2.890     0.045    26.997     8.519
    12   7 N        2.622    -0.041    22.044     6.973
    13   1 H        0.926     0.043     2.413     2.429
    14   1 H        0.926     0.045     2.389     2.417
    15   1 H        0.926     0.048     2.346     2.395
    16   1 H        0.925     0.045     2.379     2.412
    17   1 H        0.926     0.051     2.311     2.377
    18   1 H        0.926     0.046     2.366     2.405
    19   1 H        0.926     0.045     2.386     2.416
    20   1 H        0.925     0.051     2.312     2.378
    21   1 H        0.925     0.016     2.802     2.618
    22  28 Ni       5.402    -0.561   263.140    31.350
    23   6 C        3.692     0.135    18.558     6.164
    24   7 N        2.340    -0.180    25.101     7.439
    25   1 H        0.921     0.018     2.765     2.600
    26   1 H        0.926     0.034     2.534     2.489
    27   6 C        2.975     0.014    27.706     8.634
    28   6 C        1.736     0.454    21.721     7.540
    29   6 C        2.923    -0.029    28.735     8.791
    30   6 C        2.926     0.094    25.918     8.349
    31   8 O        1.561    -0.098    15.868     5.375
    32   6 C        2.918    -0.034    28.839     8.806
    33   8 O        0.856    -0.244    18.807     5.814
    34   6 C        2.924    -0.037    28.913     8.818
    35   1 H        0.925     0.039     2.461     2.453
    36   1 H        0.925     0.021     2.712     2.575
    37   1 H        0.926     0.055     2.262     2.352
    38   6 C        2.924    -0.035    28.874     8.812
    39   1 H        0.926     0.032     2.555     2.500
    40   6 C        2.919    -0.031    28.770     8.796
    41   6 C        2.918    -0.031    28.774     8.796
    42   6 C        2.918    -0.033    28.811     8.802
    43   1 H        0.926     0.032     2.552     2.498
    44   1 H        0.926     0.019     2.756     2.596
    45   6 C        2.920    -0.033    28.812     8.802
    46   6 C        2.919    -0.044    29.081     8.843
    47   6 C        2.921    -0.054    29.341     8.883
    48   1 H        0.925     0.019     2.746     2.591
    49   1 H        0.926     0.032     2.565     2.504

 Mol. C6AA /au·bohr⁶  :      37772.504404
 Mol. C8AA /au·bohr⁸  :    1064642.340323
 Mol. α(0) /au        :        316.090175


Wiberg/Mayer (AO) data.
largest (>0.10) Wiberg bond orders for each atom

 ---------------------------------------------------------------------------
     #   Z sym  total        # sym  WBO       # sym  WBO       # sym  WBO
 ---------------------------------------------------------------------------
     1   6 C    3.987 --     2 C    1.436     6 C    1.426    13 H    0.967
                             4 C    0.107
     2   6 C    3.986 --     1 C    1.436     3 C    1.435    14 H    0.965
     3   6 C    3.986 --     2 C    1.435     4 C    1.361    15 H    0.966
                             6 C    0.115
     4   6 C    3.889 --     5 N    1.404     3 C    1.361    22 Ni   0.740
                             1 C    0.107
     5   7 N    3.460 --     4 C    1.404     6 C    1.393    22 Ni   0.414
     6   6 C    3.977 --     1 C    1.426     5 N    1.393    16 H    0.962
                             3 C    0.115
     7   6 C    3.893 --    12 N    1.413     8 C    1.359    22 Ni   0.742
                            10 C    0.107
     8   6 C    3.986 --     9 C    1.435     7 C    1.359    17 H    0.966
                            11 C    0.115
     9   6 C    3.986 --     8 C    1.435    10 C    1.435    18 H    0.965
    10   6 C    3.987 --     9 C    1.435    11 C    1.426    19 H    0.967
                             7 C    0.107
    11   6 C    3.976 --    10 C    1.426    12 N    1.389    20 H    0.961
                             8 C    0.115
    12   7 N    3.483 --     7 C    1.413    11 C    1.389    22 Ni   0.429
    13   1 H    0.995 --     1 C    0.967
    14   1 H    0.993 --     2 C    0.965
    15   1 H    0.998 --     3 C    0.966
    16   1 H    0.998 --     6 C    0.962
    17   1 H    0.997 --     8 C    0.966
    18   1 H    0.993 --     9 C    0.965
    19   1 H    0.995 --    10 C    0.967
    20   1 H    0.997 --    11 C    0.961
    21   1 H    1.000 --    47 C    0.968
    22  28 Ni   4.085 --     7 C    0.742     4 C    0.740    23 C    0.454
                            12 N    0.429     5 N    0.414    24 N    0.364
                            31 O    0.347
    23   6 C    3.981 --    24 N    1.432    27 C    1.011    25 H    0.892
                            22 Ni   0.454
    24   7 N    3.233 --    23 C    1.432    30 C    1.134    22 Ni   0.364
    25   1 H    0.999 --    23 C    0.892
    26   1 H    0.999 --    38 C    0.966
    27   6 C    3.986 --    29 C    1.377    38 C    1.377    23 C    1.011
                            45 C    0.103
    28   6 C    3.934 --    33 O    1.936    31 O    1.876
    29   6 C    3.987 --    40 C    1.454    27 C    1.377    37 H    0.964
                            41 C    0.105
    30   6 C    3.979 --    47 C    1.333    34 C    1.330    24 N    1.134
    31   8 O    2.624 --    28 C    1.876    33 O    0.365    22 Ni   0.347
    32   6 C    3.992 --    34 C    1.473    46 C    1.417    36 H    0.971
    33   8 O    2.344 --    28 C    1.936    31 O    0.365
    34   6 C    3.987 --    32 C    1.473    30 C    1.330    35 H    0.959
                            42 C    0.103
    35   1 H    0.998 --    34 C    0.959
    36   1 H    0.999 --    32 C    0.971
    37   1 H    0.997 --    29 C    0.964
    38   6 C    3.988 --    41 C    1.458    27 C    1.377    26 H    0.966
                            40 C    0.106
    39   1 H    0.999 --    41 C    0.971
    40   6 C    3.992 --    29 C    1.454    45 C    1.433    43 H    0.970
                            38 C    0.106
    41   6 C    3.992 --    38 C    1.458    45 C    1.429    39 H    0.971
                            29 C    0.105
    42   6 C    3.992 --    47 C    1.458    46 C    1.431    48 H    0.971
                            34 C    0.103
    43   1 H    0.998 --    40 C    0.970
    44   1 H    1.000 --    46 C    0.972
    45   6 C    3.979 --    40 C    1.433    41 C    1.429    49 H    0.972
                            27 C    0.103
    46   6 C    3.973 --    42 C    1.431    32 C    1.417    44 H    0.972
    47   6 C    3.982 --    42 C    1.458    30 C    1.333    21 H    0.968
    48   1 H    0.999 --    42 C    0.971
    49   1 H    0.999 --    45 C    0.972
 ---------------------------------------------------------------------------

Topologies differ in total number of bonds
Writing topology from bond orders to xtbtopo.mol

molecular dipole:
                 x           y           z       tot (Debye)
 q only:        1.172      -0.514       1.018
   full:        0.801      -0.421       1.301       4.029
molecular quadrupole (traceless):
                xx          xy          yy          xz          yz          zz
 q only:        6.887       3.064     -24.034      17.771     -10.746      17.147
  q+dip:        8.180       3.163     -27.664      11.878     -15.297      19.484
   full:        4.489       5.550     -26.457      11.714      -8.622      21.968


           -------------------------------------------------
          | TOTAL ENERGY              -82.724430657499 Eh   |
          | GRADIENT NORM               0.125089351717 Eh/α |
          | HOMO-LUMO GAP               1.651355139667 eV   |
           -------------------------------------------------

------------------------------------------------------------------------
 * finished run on 2026/01/15 at 09:37:09.807     
------------------------------------------------------------------------
 total:
 * wall-time:     0 d,  0 h,  0 min,  0.130 sec
 *  cpu-time:     0 d,  0 h,  0 min,  1.753 sec
 * ratio c/w:    13.506 speedup
 SCF:
 * wall-time:     0 d,  0 h,  0 min,  0.113 sec
 *  cpu-time:     0 d,  0 h,  0 min,  1.559 sec
 * ratio c/w:    13.788 speedup

