      -----------------------------------------------------------      
     |                   =====================                   |     
     |                           x T B                           |     
     |                   =====================                   |     
     |                         S. Grimme                         |     
     |          Mulliken Center for Theoretical Chemistry        |     
     |                    University of Bonn                     |     
      -----------------------------------------------------------      

   * xtb version 6.7.0 (08769fc) compiled by 'albert@albert-system' on 2024-03-04

   xtb is free software: you can redistribute it and/or modify it under
   the terms of the GNU Lesser General Public License as published by
   the Free Software Foundation, either version 3 of the License, or
   (at your option) any later version.
   
   xtb is distributed in the hope that it will be useful,
   but WITHOUT ANY WARRANTY; without even the implied warranty of
   MERCHANTABILITY or FITNESS FOR A PARTICULAR PURPOSE.  See the
   GNU Lesser General Public License for more details.
   
   Cite this work as:
   * C. Bannwarth, E. Caldeweyher, S. Ehlert, A. Hansen, P. Pracht,
     J. Seibert, S. Spicher, S. Grimme, WIREs Comput. Mol. Sci., 2020, 11,
     e01493. DOI: 10.1002/wcms.1493
   
   for GFN2-xTB:
   * C. Bannwarth, S. Ehlert and S. Grimme., J. Chem. Theory Comput., 2019,
     15, 1652-1671. DOI: 10.1021/acs.jctc.8b01176
   for GFN1-xTB:
   * S. Grimme, C. Bannwarth, P. Shushkov, J. Chem. Theory Comput., 2017,
     13, 1989-2009. DOI: 10.1021/acs.jctc.7b00118
   for GFN0-xTB:
   * P. Pracht, E. Caldeweyher, S. Ehlert, S. Grimme, ChemRxiv, 2019, preprint.
     DOI: 10.26434/chemrxiv.8326202.v1
   for GFN-FF:
   * S. Spicher and S. Grimme, Angew. Chem. Int. Ed., 2020, 59, 15665-15673.
     DOI: 10.1002/anie.202004239
   
   for ALPB and GBSA implicit solvation:
   * S. Ehlert, M. Stahn, S. Spicher, S. Grimme, J. Chem. Theory Comput.,
     2021, 17, 4250-4261. DOI: 10.1021/acs.jctc.1c00471
   
   for ddCOSMO and CPCM-X implicit solvation:
   * M. Stahn, S. Ehlert, S. Grimme, J. Phys. Chem. A,
     2023, XX, XXXX-XXXX. DOI: 10.1021/acs.jpca.3c04382
   
   for DFT-D4:
   * E. Caldeweyher, C. Bannwarth and S. Grimme, J. Chem. Phys., 2017,
     147, 034112. DOI: 10.1063/1.4993215
   * E. Caldeweyher, S. Ehlert, A. Hansen, H. Neugebauer, S. Spicher,
     C. Bannwarth and S. Grimme, J. Chem. Phys., 2019, 150, 154122.
     DOI: 10.1063/1.5090222
   * E. Caldeweyher, J.-M. Mewes, S. Ehlert and S. Grimme, Phys. Chem. Chem. Phys.
     2020, 22, 8499-8512. DOI: 10.1039/D0CP00502A
   
   for sTDA-xTB:
   * S. Grimme and C. Bannwarth, J. Chem. Phys., 2016, 145, 054103.
     DOI: 10.1063/1.4959605
   
   in the mass-spec context:
   * V. Asgeirsson, C. Bauer and S. Grimme, Chem. Sci., 2017, 8, 4879.
     DOI: 10.1039/c7sc00601b
   * J. Koopman and S. Grimme, ACS Omega 2019, 4, 12, 15120-15133.
     DOI: 10.1021/acsomega.9b02011
   
   for metadynamics refer to:
   * S. Grimme, J. Chem. Theory Comput., 2019, 155, 2847-2862
     DOI: 10.1021/acs.jctc.9b00143
   
   for SPH calculations refer to:
   * S. Spicher and S. Grimme, J. Chem. Theory Comput., 2021, 17, 1701-1714
     DOI: 10.1021/acs.jctc.0c01306
   
   for ONIOM refer to:
   * C. Plett, A. Katbashev, S. Ehlert, S. Grimme, M. Bursch,
     Phys. Chem. Chem. Phys., 2023, 25, 17860-17868. DOI: 10.1039/D3CP02178E
   
   for DIPRO refer to:
   * J. Kohn, N. Gildemeister, S. Grimme, D. Fazzi, A. Hansen,
     J. Chem. Phys., 2023, just accepted.
   
   for PTB refer to:
   * S. Grimme, M. Mueller, A. Hansen, J. Chem. Phys., 2023, 158, 124111.
     DOI: 10.1063/5.0137838
   
   with help from (in alphabetical order)
   P. Atkinson, C. Bannwarth, F. Bohle, G. Brandenburg, E. Caldeweyher
   M. Checinski, S. Dohm, S. Ehlert, S. Ehrlich, I. Gerasimov, C. Hölzer
   A. Katbashev, J. Kohn, J. Koopman, C. Lavigne, S. Lehtola, F. März, M. Müller,
   F. Musil, H. Neugebauer, J. Pisarek, C. Plett, P. Pracht, F. Pultar,
   J. Seibert, P. Shushkov, S. Spicher, M. Stahn, M. Steiner, T. Strunk,
   J. Stückrath, T. Rose, and J. Unsleber
   
 * started run on 2026/01/15 at 09:37:11.082     
   ID    Z sym.   atoms
    1    6 C      1-4, 6-11, 23, 27-30, 32, 34, 38, 40-42, 45-47
    2    7 N      5, 12, 24
    3    1 H      13-21, 25, 26, 35-37, 39, 43, 44, 48, 49
    4   28 Ni     22
    5    8 O      31, 33

           -------------------------------------------------
          |                Calculation Setup                |
           -------------------------------------------------

          program call               : xtb isomer1_embed_35.xyz --sp
          coordinate file            : isomer1_embed_35.xyz
          omp threads                :                    16


molecular fragmentation (1/2 indicates fragments):
1111111111111111111111111112112121111111111111111
# atoms in fragment 1/2:    46     3
 fragment masses (1/2) :      396.11       44.01
CMA distance (Bohr)    :   7.200
constraining FC (au)   :  0.0500

           -------------------------------------------------
          |                 G F N 2 - x T B                 |
           -------------------------------------------------

        Reference                      10.1021/acs.jctc.8b01176
      * Hamiltonian:
        H0-scaling (s, p, d)           1.850000    2.230000    2.230000
        zeta-weighting                 0.500000
      * Dispersion:
        s8                             2.700000
        a1                             0.520000
        a2                             5.000000
        s9                             5.000000
      * Repulsion:
        kExp                           1.500000    1.000000
        rExp                           1.000000
      * Coulomb:
        alpha                          2.000000
        third order                    shell-resolved
        anisotropic                    true
        a3                             3.000000
        a5                             4.000000
        cn-shift                       1.200000
        cn-exp                         4.000000
        max-rad                        5.000000

q/qsh data taken from xtbrestart
CAMM data taken from xtbrestart

          ...................................................
          :                      SETUP                      :
          :.................................................:
          :  # basis functions                 145          :
          :  # atomic orbitals                 144          :
          :  # shells                           80          :
          :  # electrons                       152          :
          :  max. iterations                   250          :
          :  Hamiltonian                  GFN2-xTB          :
          :  restarted?                       true          :
          :  GBSA solvation                  false          :
          :  PC potential                    false          :
          :  electronic temp.          300.0000000     K    :
          :  accuracy                    1.0000000          :
          :  -> integral cutoff          0.2500000E+02      :
          :  -> integral neglect         0.1000000E-07      :
          :  -> SCF convergence          0.1000000E-05 Eh   :
          :  -> wf. convergence          0.1000000E-03 e    :
          :  Broyden damping             0.4000000          :
          :  net charge                          0          :
          :  unpaired electrons                  0          :
          ...................................................

 iter      E             dE          RMSdq      gap      omega  full diag
   1    -84.0455186 -0.840455E+02  0.514E+00    1.46       0.0  T
   2    -84.0598999 -0.143814E-01  0.313E+00    1.64       1.0  T
   3    -83.9898934  0.700065E-01  0.119E+00    1.47       1.0  T
   4    -84.0682588 -0.783653E-01  0.509E-01    1.58       1.0  T
   5    -84.0714949 -0.323611E-02  0.305E-01    1.66       1.0  T
   6    -84.0717968 -0.301925E-03  0.168E-01    1.64       1.0  T
   7    -84.0723360 -0.539256E-03  0.773E-02    1.65       1.0  T
   8    -84.0724209 -0.848151E-04  0.444E-02    1.65       1.0  T
   9    -84.0724711 -0.502849E-04  0.208E-02    1.65       1.0  T
  10    -84.0724773 -0.613881E-05  0.957E-03    1.65       1.5  T
  11    -84.0724781 -0.851006E-06  0.525E-03    1.65       2.7  T
  12    -84.0724784 -0.287048E-06  0.297E-03    1.65       4.8  T
  13    -84.0724785 -0.674639E-07  0.123E-03    1.65      11.6  T
  14    -84.0724785 -0.370665E-07  0.583E-04    1.65      24.5  T
  15    -84.0724785 -0.376515E-08  0.318E-04    1.65      44.9  T

   *** convergence criteria satisfied after 15 iterations ***

         #    Occupation            Energy/Eh            Energy/eV
      -------------------------------------------------------------
         1        2.0000           -0.8021394             -21.8273
       ...           ...                  ...                  ...
        70        2.0000           -0.3864171             -10.5149
        71        2.0000           -0.3858938             -10.5007
        72        2.0000           -0.3726533             -10.1404
        73        2.0000           -0.3656575              -9.9500
        74        2.0000           -0.3568564              -9.7106
        75        2.0000           -0.3375982              -9.1865
        76        2.0000           -0.3220696              -8.7640 (HOMO)
        77                         -0.2613926              -7.1129 (LUMO)
        78                         -0.2590466              -7.0490
        79                         -0.2563724              -6.9762
        80                         -0.2545555              -6.9268
        81                         -0.2377796              -6.4703
       ...                                ...                  ...
       144                          1.7390498              47.3220
      -------------------------------------------------------------
                  HL-Gap            0.0606770 Eh            1.6511 eV
             Fermi-level           -0.2917311 Eh           -7.9384 eV

 SCC (total)                   0 d,  0 h,  0 min,  0.066 sec
 SCC setup                      ...        0 min,  0.000 sec (  0.594%)
 Dispersion                     ...        0 min,  0.001 sec (  1.246%)
 classical contributions        ...        0 min,  0.000 sec (  0.113%)
 integral evaluation            ...        0 min,  0.005 sec (  8.051%)
 iterations                     ...        0 min,  0.053 sec ( 79.451%)
 molecular gradient             ...        0 min,  0.006 sec (  9.804%)
 printout                       ...        0 min,  0.000 sec (  0.675%)

         :::::::::::::::::::::::::::::::::::::::::::::::::::::
         ::                     SUMMARY                     ::
         :::::::::::::::::::::::::::::::::::::::::::::::::::::
         :: total energy             -82.724423116076 Eh    ::
         :: gradient norm              0.125067060136 Eh/a0 ::
         :: HOMO-LUMO gap              1.651105405517 eV    ::
         ::.................................................::
         :: SCC energy               -84.070535278449 Eh    ::
         :: -> isotropic ES            0.060116348746 Eh    ::
         :: -> anisotropic ES          0.008861949429 Eh    ::
         :: -> anisotropic XC          0.043318517361 Eh    ::
         :: -> dispersion             -0.075996441674 Eh    ::
         :: repulsion energy           1.346112162372 Eh    ::
         :: add. restraining           0.000000000000 Eh    ::
         :: total charge               0.000000000000 e     ::
         :::::::::::::::::::::::::::::::::::::::::::::::::::::

           -------------------------------------------------
          |                Property Printout                |
           -------------------------------------------------

    * Orbital Energies and Occupations

         #    Occupation            Energy/Eh            Energy/eV
      -------------------------------------------------------------
         1        2.0000           -0.8021394             -21.8273
       ...           ...                  ...                  ...
        64        2.0000           -0.4112291             -11.1901
        65        2.0000           -0.4080237             -11.1029
        66        2.0000           -0.4018499             -10.9349
        67        2.0000           -0.4004547             -10.8969
        68        2.0000           -0.3982931             -10.8381
        69        2.0000           -0.3939680             -10.7204
        70        2.0000           -0.3864171             -10.5149
        71        2.0000           -0.3858938             -10.5007
        72        2.0000           -0.3726533             -10.1404
        73        2.0000           -0.3656575              -9.9500
        74        2.0000           -0.3568564              -9.7106
        75        2.0000           -0.3375982              -9.1865
        76        2.0000           -0.3220696              -8.7640 (HOMO)
        77                         -0.2613926              -7.1129 (LUMO)
        78                         -0.2590466              -7.0490
        79                         -0.2563724              -6.9762
        80                         -0.2545555              -6.9268
        81                         -0.2377796              -6.4703
        82                         -0.2343478              -6.3769
        83                         -0.2200553              -5.9880
        84                         -0.2162994              -5.8858
        85                         -0.2122174              -5.7747
        86                         -0.2034622              -5.5365
        87                         -0.1985198              -5.4020
       ...                                ...                  ...
       144                          1.7390498              47.3220
      -------------------------------------------------------------
                  HL-Gap            0.0606770 Eh            1.6511 eV
             Fermi-level           -0.2917311 Eh           -7.9384 eV

     #   Z          covCN         q      C6AA      α(0)
     1   6 C        2.915    -0.040    28.994     8.830
     2   6 C        2.932    -0.009    28.239     8.715
     3   6 C        2.912    -0.034    28.858     8.809
     4   6 C        2.848     0.116    25.437     8.266
     5   7 N        2.622    -0.064    22.499     7.045
     6   6 C        2.886     0.047    26.954     8.512
     7   6 C        2.853     0.119    25.369     8.255
     8   6 C        2.912    -0.032    28.800     8.800
     9   6 C        2.934    -0.009    28.242     8.716
    10   6 C        2.915    -0.040    28.997     8.830
    11   6 C        2.890     0.045    26.996     8.519
    12   7 N        2.622    -0.041    22.052     6.974
    13   1 H        0.926     0.043     2.412     2.429
    14   1 H        0.926     0.045     2.389     2.417
    15   1 H        0.926     0.048     2.345     2.395
    16   1 H        0.925     0.045     2.379     2.412
    17   1 H        0.926     0.051     2.311     2.377
    18   1 H        0.926     0.046     2.366     2.405
    19   1 H        0.926     0.045     2.386     2.416
    20   1 H        0.925     0.051     2.312     2.378
    21   1 H        0.925     0.039     2.461     2.453
    22  28 Ni       5.402    -0.561   263.135    31.349
    23   6 C        3.692     0.135    18.559     6.164
    24   7 N        2.340    -0.180    25.098     7.438
    25   1 H        0.921     0.018     2.764     2.600
    26   1 H        0.926     0.034     2.534     2.490
    27   6 C        2.975     0.014    27.705     8.634
    28   6 C        1.736     0.454    21.718     7.539
    29   6 C        2.923    -0.029    28.735     8.791
    30   6 C        2.926     0.094    25.921     8.349
    31   8 O        1.561    -0.098    15.870     5.375
    32   6 C        2.918    -0.033    28.811     8.802
    33   8 O        0.856    -0.244    18.807     5.814
    34   6 C        2.921    -0.054    29.342     8.883
    35   1 H        0.925     0.016     2.802     2.618
    36   1 H        0.925     0.019     2.746     2.591
    37   1 H        0.926     0.055     2.261     2.351
    38   6 C        2.924    -0.035    28.875     8.812
    39   1 H        0.926     0.032     2.555     2.500
    40   6 C        2.919    -0.031    28.771     8.796
    41   6 C        2.918    -0.031    28.775     8.796
    42   6 C        2.918    -0.034    28.840     8.806
    43   1 H        0.926     0.032     2.552     2.498
    44   1 H        0.926     0.019     2.756     2.596
    45   6 C        2.920    -0.033    28.812     8.802
    46   6 C        2.919    -0.044    29.081     8.843
    47   6 C        2.924    -0.037    28.915     8.818
    48   1 H        0.925     0.021     2.713     2.576
    49   1 H        0.926     0.032     2.565     2.504

 Mol. C6AA /au·bohr⁶  :      37772.300331
 Mol. C8AA /au·bohr⁸  :    1064637.771189
 Mol. α(0) /au        :        316.088793


Wiberg/Mayer (AO) data.
largest (>0.10) Wiberg bond orders for each atom

 ---------------------------------------------------------------------------
     #   Z sym  total        # sym  WBO       # sym  WBO       # sym  WBO
 ---------------------------------------------------------------------------
     1   6 C    3.987 --     2 C    1.436     6 C    1.426    13 H    0.967
                             4 C    0.107
     2   6 C    3.986 --     1 C    1.436     3 C    1.435    14 H    0.965
     3   6 C    3.986 --     2 C    1.435     4 C    1.361    15 H    0.966
                             6 C    0.115
     4   6 C    3.889 --     5 N    1.404     3 C    1.361    22 Ni   0.741
                             1 C    0.107
     5   7 N    3.460 --     4 C    1.404     6 C    1.393    22 Ni   0.414
     6   6 C    3.977 --     1 C    1.426     5 N    1.393    16 H    0.962
                             3 C    0.115
     7   6 C    3.893 --    12 N    1.413     8 C    1.359    22 Ni   0.742
                            10 C    0.107
     8   6 C    3.986 --     9 C    1.435     7 C    1.359    17 H    0.966
                            11 C    0.115
     9   6 C    3.986 --     8 C    1.435    10 C    1.435    18 H    0.965
    10   6 C    3.987 --     9 C    1.435    11 C    1.426    19 H    0.967
                             7 C    0.107
    11   6 C    3.976 --    10 C    1.426    12 N    1.389    20 H    0.961
                             8 C    0.115
    12   7 N    3.482 --     7 C    1.413    11 C    1.389    22 Ni   0.429
    13   1 H    0.995 --     1 C    0.967
    14   1 H    0.993 --     2 C    0.965
    15   1 H    0.998 --     3 C    0.966
    16   1 H    0.998 --     6 C    0.962
    17   1 H    0.997 --     8 C    0.966
    18   1 H    0.993 --     9 C    0.965
    19   1 H    0.995 --    10 C    0.967
    20   1 H    0.997 --    11 C    0.961
    21   1 H    0.998 --    47 C    0.959
    22  28 Ni   4.085 --     7 C    0.742     4 C    0.741    23 C    0.454
                            12 N    0.429     5 N    0.414    24 N    0.365
                            31 O    0.346
    23   6 C    3.981 --    24 N    1.431    27 C    1.011    25 H    0.892
                            22 Ni   0.454
    24   7 N    3.233 --    23 C    1.431    30 C    1.134    22 Ni   0.365
    25   1 H    0.999 --    23 C    0.892
    26   1 H    0.999 --    38 C    0.966
    27   6 C    3.986 --    29 C    1.377    38 C    1.377    23 C    1.011
                            45 C    0.103
    28   6 C    3.934 --    33 O    1.936    31 O    1.876
    29   6 C    3.987 --    40 C    1.454    27 C    1.377    37 H    0.964
                            41 C    0.105
    30   6 C    3.979 --    34 C    1.333    47 C    1.330    24 N    1.134
    31   8 O    2.623 --    28 C    1.876    33 O    0.365    22 Ni   0.346
    32   6 C    3.992 --    34 C    1.459    46 C    1.431    36 H    0.971
                            47 C    0.103
    33   8 O    2.344 --    28 C    1.936    31 O    0.365
    34   6 C    3.982 --    32 C    1.459    30 C    1.333    35 H    0.968
    35   1 H    1.000 --    34 C    0.968
    36   1 H    0.999 --    32 C    0.971
    37   1 H    0.997 --    29 C    0.964
    38   6 C    3.988 --    41 C    1.458    27 C    1.377    26 H    0.966
                            40 C    0.106
    39   1 H    0.999 --    41 C    0.971
    40   6 C    3.992 --    29 C    1.454    45 C    1.433    43 H    0.970
                            38 C    0.106
    41   6 C    3.992 --    38 C    1.458    45 C    1.429    39 H    0.971
                            29 C    0.105
    42   6 C    3.992 --    47 C    1.473    46 C    1.417    48 H    0.971
    43   1 H    0.998 --    40 C    0.970
    44   1 H    1.000 --    46 C    0.972
    45   6 C    3.979 --    40 C    1.433    41 C    1.429    49 H    0.972
                            27 C    0.103
    46   6 C    3.973 --    32 C    1.431    42 C    1.417    44 H    0.972
    47   6 C    3.987 --    42 C    1.473    30 C    1.330    21 H    0.959
                            32 C    0.103
    48   1 H    0.999 --    42 C    0.971
    49   1 H    0.999 --    45 C    0.972
 ---------------------------------------------------------------------------

Topologies differ in total number of bonds
Writing topology from bond orders to xtbtopo.mol

molecular dipole:
                 x           y           z       tot (Debye)
 q only:        0.561      -1.387       0.660
   full:        0.104      -1.377       0.785       4.036
molecular quadrupole (traceless):
                xx          xy          yy          xz          yz          zz
 q only:       -6.645       4.733      11.297       7.552     -25.884      -4.652
  q+dip:        1.203       8.728      11.380       6.352     -26.351     -12.583
   full:       -1.022       9.867       5.461       3.832     -26.234      -4.439


           -------------------------------------------------
          | TOTAL ENERGY              -82.724423116076 Eh   |
          | GRADIENT NORM               0.125067060136 Eh/α |
          | HOMO-LUMO GAP               1.651105405517 eV   |
           -------------------------------------------------

------------------------------------------------------------------------
 * finished run on 2026/01/15 at 09:37:11.166     
------------------------------------------------------------------------
 total:
 * wall-time:     0 d,  0 h,  0 min,  0.084 sec
 *  cpu-time:     0 d,  0 h,  0 min,  1.199 sec
 * ratio c/w:    14.297 speedup
 SCF:
 * wall-time:     0 d,  0 h,  0 min,  0.067 sec
 *  cpu-time:     0 d,  0 h,  0 min,  0.997 sec
 * ratio c/w:    14.976 speedup

