      -----------------------------------------------------------      
     |                   =====================                   |     
     |                           x T B                           |     
     |                   =====================                   |     
     |                         S. Grimme                         |     
     |          Mulliken Center for Theoretical Chemistry        |     
     |                    University of Bonn                     |     
      -----------------------------------------------------------      

   * xtb version 6.7.0 (08769fc) compiled by 'albert@albert-system' on 2024-03-04

   xtb is free software: you can redistribute it and/or modify it under
   the terms of the GNU Lesser General Public License as published by
   the Free Software Foundation, either version 3 of the License, or
   (at your option) any later version.
   
   xtb is distributed in the hope that it will be useful,
   but WITHOUT ANY WARRANTY; without even the implied warranty of
   MERCHANTABILITY or FITNESS FOR A PARTICULAR PURPOSE.  See the
   GNU Lesser General Public License for more details.
   
   Cite this work as:
   * C. Bannwarth, E. Caldeweyher, S. Ehlert, A. Hansen, P. Pracht,
     J. Seibert, S. Spicher, S. Grimme, WIREs Comput. Mol. Sci., 2020, 11,
     e01493. DOI: 10.1002/wcms.1493
   
   for GFN2-xTB:
   * C. Bannwarth, S. Ehlert and S. Grimme., J. Chem. Theory Comput., 2019,
     15, 1652-1671. DOI: 10.1021/acs.jctc.8b01176
   for GFN1-xTB:
   * S. Grimme, C. Bannwarth, P. Shushkov, J. Chem. Theory Comput., 2017,
     13, 1989-2009. DOI: 10.1021/acs.jctc.7b00118
   for GFN0-xTB:
   * P. Pracht, E. Caldeweyher, S. Ehlert, S. Grimme, ChemRxiv, 2019, preprint.
     DOI: 10.26434/chemrxiv.8326202.v1
   for GFN-FF:
   * S. Spicher and S. Grimme, Angew. Chem. Int. Ed., 2020, 59, 15665-15673.
     DOI: 10.1002/anie.202004239
   
   for ALPB and GBSA implicit solvation:
   * S. Ehlert, M. Stahn, S. Spicher, S. Grimme, J. Chem. Theory Comput.,
     2021, 17, 4250-4261. DOI: 10.1021/acs.jctc.1c00471
   
   for ddCOSMO and CPCM-X implicit solvation:
   * M. Stahn, S. Ehlert, S. Grimme, J. Phys. Chem. A,
     2023, XX, XXXX-XXXX. DOI: 10.1021/acs.jpca.3c04382
   
   for DFT-D4:
   * E. Caldeweyher, C. Bannwarth and S. Grimme, J. Chem. Phys., 2017,
     147, 034112. DOI: 10.1063/1.4993215
   * E. Caldeweyher, S. Ehlert, A. Hansen, H. Neugebauer, S. Spicher,
     C. Bannwarth and S. Grimme, J. Chem. Phys., 2019, 150, 154122.
     DOI: 10.1063/1.5090222
   * E. Caldeweyher, J.-M. Mewes, S. Ehlert and S. Grimme, Phys. Chem. Chem. Phys.
     2020, 22, 8499-8512. DOI: 10.1039/D0CP00502A
   
   for sTDA-xTB:
   * S. Grimme and C. Bannwarth, J. Chem. Phys., 2016, 145, 054103.
     DOI: 10.1063/1.4959605
   
   in the mass-spec context:
   * V. Asgeirsson, C. Bauer and S. Grimme, Chem. Sci., 2017, 8, 4879.
     DOI: 10.1039/c7sc00601b
   * J. Koopman and S. Grimme, ACS Omega 2019, 4, 12, 15120-15133.
     DOI: 10.1021/acsomega.9b02011
   
   for metadynamics refer to:
   * S. Grimme, J. Chem. Theory Comput., 2019, 155, 2847-2862
     DOI: 10.1021/acs.jctc.9b00143
   
   for SPH calculations refer to:
   * S. Spicher and S. Grimme, J. Chem. Theory Comput., 2021, 17, 1701-1714
     DOI: 10.1021/acs.jctc.0c01306
   
   for ONIOM refer to:
   * C. Plett, A. Katbashev, S. Ehlert, S. Grimme, M. Bursch,
     Phys. Chem. Chem. Phys., 2023, 25, 17860-17868. DOI: 10.1039/D3CP02178E
   
   for DIPRO refer to:
   * J. Kohn, N. Gildemeister, S. Grimme, D. Fazzi, A. Hansen,
     J. Chem. Phys., 2023, just accepted.
   
   for PTB refer to:
   * S. Grimme, M. Mueller, A. Hansen, J. Chem. Phys., 2023, 158, 124111.
     DOI: 10.1063/5.0137838
   
   with help from (in alphabetical order)
   P. Atkinson, C. Bannwarth, F. Bohle, G. Brandenburg, E. Caldeweyher
   M. Checinski, S. Dohm, S. Ehlert, S. Ehrlich, I. Gerasimov, C. Hölzer
   A. Katbashev, J. Kohn, J. Koopman, C. Lavigne, S. Lehtola, F. März, M. Müller,
   F. Musil, H. Neugebauer, J. Pisarek, C. Plett, P. Pracht, F. Pultar,
   J. Seibert, P. Shushkov, S. Spicher, M. Stahn, M. Steiner, T. Strunk,
   J. Stückrath, T. Rose, and J. Unsleber
   
 * started run on 2026/01/15 at 09:37:08.952     
   ID    Z sym.   atoms
    1    6 C      1-4, 6-11, 23, 27-30, 32, 34, 38, 40-42, 45-47
    2    7 N      5, 12, 24
    3    1 H      13-21, 25, 26, 35-37, 39, 43, 44, 48, 49
    4   28 Ni     22
    5    8 O      31, 33

           -------------------------------------------------
          |                Calculation Setup                |
           -------------------------------------------------

          program call               : xtb isomer1_embed_18.xyz --sp
          coordinate file            : isomer1_embed_18.xyz
          omp threads                :                    16


           -------------------------------------------------
          |                 G F N 2 - x T B                 |
           -------------------------------------------------

        Reference                      10.1021/acs.jctc.8b01176
      * Hamiltonian:
        H0-scaling (s, p, d)           1.850000    2.230000    2.230000
        zeta-weighting                 0.500000
      * Dispersion:
        s8                             2.700000
        a1                             0.520000
        a2                             5.000000
        s9                             5.000000
      * Repulsion:
        kExp                           1.500000    1.000000
        rExp                           1.000000
      * Coulomb:
        alpha                          2.000000
        third order                    shell-resolved
        anisotropic                    true
        a3                             3.000000
        a5                             4.000000
        cn-shift                       1.200000
        cn-exp                         4.000000
        max-rad                        5.000000

q/qsh data taken from xtbrestart
CAMM data taken from xtbrestart

          ...................................................
          :                      SETUP                      :
          :.................................................:
          :  # basis functions                 145          :
          :  # atomic orbitals                 144          :
          :  # shells                           80          :
          :  # electrons                       152          :
          :  max. iterations                   250          :
          :  Hamiltonian                  GFN2-xTB          :
          :  restarted?                       true          :
          :  GBSA solvation                  false          :
          :  PC potential                    false          :
          :  electronic temp.          300.0000000     K    :
          :  accuracy                    1.0000000          :
          :  -> integral cutoff          0.2500000E+02      :
          :  -> integral neglect         0.1000000E-07      :
          :  -> SCF convergence          0.1000000E-05 Eh   :
          :  -> wf. convergence          0.1000000E-03 e    :
          :  Broyden damping             0.4000000          :
          :  net charge                          0          :
          :  unpaired electrons                  0          :
          ...................................................

 iter      E             dE          RMSdq      gap      omega  full diag
   1    -84.0585713 -0.840586E+02  0.621E+00    0.37       0.0  T
   2    -84.0871720 -0.286008E-01  0.378E+00    0.78       1.0  T
   3    -83.9993533  0.878187E-01  0.134E+00    0.35       1.0  T
   4    -84.1044863 -0.105133E+00  0.393E-01    0.58       1.0  T
   5    -84.1050977 -0.611405E-03  0.267E-01    0.62       1.0  T
   6    -84.1052241 -0.126428E-03  0.166E-01    0.58       1.0  T
   7    -84.1056363 -0.412177E-03  0.932E-02    0.63       1.0  T
   8    -84.1056877 -0.514242E-04  0.597E-02    0.62       1.0  T
   9    -84.1057211 -0.333943E-04  0.251E-02    0.63       1.0  T
  10    -84.1057282 -0.703828E-05  0.142E-02    0.63       1.0  T
  11    -84.1057286 -0.436246E-06  0.661E-03    0.63       2.2  T
  12    -84.1057295 -0.900357E-06  0.333E-03    0.63       4.3  T
  13    -84.1057296 -0.120147E-06  0.206E-03    0.63       6.9  T
  14    -84.1057297 -0.193256E-07  0.102E-03    0.63      14.0  T
  15    -84.1057297 -0.181033E-07  0.409E-04    0.63      34.9  T
  16    -84.1057297 -0.117099E-08  0.200E-04    0.63      71.3  T

   *** convergence criteria satisfied after 16 iterations ***

         #    Occupation            Energy/Eh            Energy/eV
      -------------------------------------------------------------
         1        2.0000           -0.7144437             -19.4410
       ...           ...                  ...                  ...
        70        2.0000           -0.3787395             -10.3060
        71        2.0000           -0.3761510             -10.2356
        72        2.0000           -0.3708373             -10.0910
        73        2.0000           -0.3649987              -9.9321
        74        2.0000           -0.3620804              -9.8527
        75        2.0000           -0.3541218              -9.6361
        76        2.0000           -0.3386091              -9.2140 (HOMO)
        77        0.0000           -0.3154203              -8.5830 (LUMO)
        78                         -0.2928220              -7.9681
        79                         -0.2845785              -7.7438
        80                         -0.2557747              -6.9600
        81                         -0.2446421              -6.6571
       ...                                ...                  ...
       144                          1.6428248              44.7035
      -------------------------------------------------------------
                  HL-Gap            0.0231887 Eh            0.6310 eV
             Fermi-level           -0.3270147 Eh           -8.8985 eV

 SCC (total)                   0 d,  0 h,  0 min,  0.074 sec
 SCC setup                      ...        0 min,  0.000 sec (  0.542%)
 Dispersion                     ...        0 min,  0.001 sec (  1.081%)
 classical contributions        ...        0 min,  0.000 sec (  0.047%)
 integral evaluation            ...        0 min,  0.005 sec (  6.848%)
 iterations                     ...        0 min,  0.061 sec ( 81.973%)
 molecular gradient             ...        0 min,  0.007 sec (  8.911%)
 printout                       ...        0 min,  0.000 sec (  0.531%)

         :::::::::::::::::::::::::::::::::::::::::::::::::::::
         ::                     SUMMARY                     ::
         :::::::::::::::::::::::::::::::::::::::::::::::::::::
         :: total energy             -82.831069068057 Eh    ::
         :: gradient norm              0.022788338334 Eh/a0 ::
         :: HOMO-LUMO gap              0.630997712326 eV    ::
         ::.................................................::
         :: SCC energy               -84.104100477937 Eh    ::
         :: -> isotropic ES            0.097118192318 Eh    ::
         :: -> anisotropic ES          0.000946901584 Eh    ::
         :: -> anisotropic XC          0.037596274416 Eh    ::
         :: -> dispersion             -0.071932623210 Eh    ::
         :: repulsion energy           1.273031409880 Eh    ::
         :: add. restraining           0.000000000000 Eh    ::
         :: total charge               0.000000000001 e     ::
         :::::::::::::::::::::::::::::::::::::::::::::::::::::

           -------------------------------------------------
          |                Property Printout                |
           -------------------------------------------------

    * Orbital Energies and Occupations

         #    Occupation            Energy/Eh            Energy/eV
      -------------------------------------------------------------
         1        2.0000           -0.7144437             -19.4410
       ...           ...                  ...                  ...
        64        2.0000           -0.4067973             -11.0695
        65        2.0000           -0.4052849             -11.0284
        66        2.0000           -0.4038463             -10.9892
        67        2.0000           -0.4035732             -10.9818
        68        2.0000           -0.3939819             -10.7208
        69        2.0000           -0.3825253             -10.4090
        70        2.0000           -0.3787395             -10.3060
        71        2.0000           -0.3761510             -10.2356
        72        2.0000           -0.3708373             -10.0910
        73        2.0000           -0.3649987              -9.9321
        74        2.0000           -0.3620804              -9.8527
        75        2.0000           -0.3541218              -9.6361
        76        2.0000           -0.3386091              -9.2140 (HOMO)
        77        0.0000           -0.3154203              -8.5830 (LUMO)
        78                         -0.2928220              -7.9681
        79                         -0.2845785              -7.7438
        80                         -0.2557747              -6.9600
        81                         -0.2446421              -6.6571
        82                         -0.2229725              -6.0674
        83                         -0.2090293              -5.6880
        84                         -0.1964339              -5.3452
        85                         -0.1939882              -5.2787
        86                         -0.1642559              -4.4696
        87                         -0.1352754              -3.6810
       ...                                ...                  ...
       144                          1.6428248              44.7035
      -------------------------------------------------------------
                  HL-Gap            0.0231887 Eh            0.6310 eV
             Fermi-level           -0.3270147 Eh           -8.8985 eV

     #   Z          covCN         q      C6AA      α(0)
     1   6 C        2.915    -0.030    28.747     8.792
     2   6 C        2.925    -0.008    28.221     8.712
     3   6 C        2.917    -0.037    28.929     8.820
     4   6 C        3.129     0.090    25.813     8.318
     5   7 N        2.645    -0.021    21.665     6.913
     6   6 C        2.890     0.052    26.843     8.494
     7   6 C        3.171     0.090    25.655     8.274
     8   6 C        2.915    -0.036    28.907     8.816
     9   6 C        2.925    -0.007    28.193     8.707
    10   6 C        2.914    -0.027    28.666     8.780
    11   6 C        2.889     0.064    26.567     8.451
    12   7 N        2.645    -0.010    21.451     6.879
    13   1 H        0.926     0.061     2.188     2.313
    14   1 H        0.926     0.057     2.232     2.336
    15   1 H        0.926     0.053     2.280     2.361
    16   1 H        0.926     0.078     1.995     2.209
    17   1 H        0.926     0.048     2.342     2.393
    18   1 H        0.926     0.054     2.267     2.355
    19   1 H        0.926     0.062     2.180     2.309
    20   1 H        0.925     0.101     1.780     2.086
    21   1 H        0.926     0.026     2.644     2.543
    22  28 Ni       3.847    -0.287   251.762    31.059
    23   6 C        3.702     0.052    19.858     6.372
    24   7 N        2.753    -0.120    23.605     7.216
    25   1 H        0.923     0.051     2.312     2.378
    26   1 H        0.925     0.061     2.190     2.314
    27   6 C        3.156     0.034    26.950     8.489
    28   6 C        2.679     0.418    19.969     7.313
    29   6 C        2.922    -0.045    29.112     8.848
    30   6 C        2.911     0.073    26.372     8.421
    31   8 O        1.598    -0.336    19.676     5.986
    32   6 C        2.920    -0.029    28.730     8.790
    33   8 O        0.857    -0.472    23.175     6.454
    34   6 C        2.923    -0.045    29.111     8.848
    35   1 H        0.926     0.061     2.185     2.312
    36   1 H        0.926     0.030     2.589     2.516
    37   1 H        0.925     0.022     2.707     2.573
    38   6 C        2.922    -0.023    28.580     8.767
    39   1 H        0.926     0.032     2.556     2.500
    40   6 C        2.917    -0.034    28.839     8.806
    41   6 C        2.917    -0.030    28.760     8.794
    42   6 C        2.920    -0.033    28.819     8.803
    43   1 H        0.926     0.024     2.669     2.555
    44   1 H        0.926     0.023     2.688     2.564
    45   6 C        2.919    -0.037    28.926     8.820
    46   6 C        2.918    -0.042    29.037     8.837
    47   6 C        2.923    -0.056    29.395     8.891
    48   1 H        0.926     0.022     2.704     2.571
    49   1 H        0.926     0.027     2.626     2.534

 Mol. C6AA /au·bohr⁶  :      37520.344812
 Mol. C8AA /au·bohr⁸  :    1056506.923616
 Mol. α(0) /au        :        315.192709


Wiberg/Mayer (AO) data.
largest (>0.10) Wiberg bond orders for each atom

 ---------------------------------------------------------------------------
     #   Z sym  total        # sym  WBO       # sym  WBO       # sym  WBO
 ---------------------------------------------------------------------------
     1   6 C    3.980 --     6 C    1.429     2 C    1.423    13 H    0.968
     2   6 C    3.984 --     3 C    1.446     1 C    1.423    14 H    0.968
     3   6 C    3.989 --     2 C    1.446     4 C    1.382    15 H    0.963
                             6 C    0.101
     4   6 C    3.980 --     3 C    1.382     5 N    1.298     7 C    1.045
     5   7 N    3.524 --     6 C    1.388     4 C    1.298    22 Ni   0.570
     6   6 C    3.974 --     1 C    1.429     5 N    1.388    16 H    0.950
                             3 C    0.101
     7   6 C    3.981 --     8 C    1.377    12 N    1.297     4 C    1.045
     8   6 C    3.990 --     9 C    1.447     7 C    1.377    17 H    0.964
                            11 C    0.103
     9   6 C    3.984 --     8 C    1.447    10 C    1.430    18 H    0.968
    10   6 C    3.979 --     9 C    1.430    11 C    1.419    19 H    0.968
    11   6 C    3.968 --    10 C    1.419    12 N    1.401    20 H    0.946
                             8 C    0.103
    12   7 N    3.481 --    11 C    1.401     7 C    1.297    22 Ni   0.518
    13   1 H    0.996 --     1 C    0.968
    14   1 H    0.996 --     2 C    0.968
    15   1 H    0.997 --     3 C    0.963
    16   1 H    0.993 --     6 C    0.950
    17   1 H    0.997 --     8 C    0.964
    18   1 H    0.996 --     9 C    0.968
    19   1 H    0.996 --    10 C    0.968
    20   1 H    0.989 --    11 C    0.946
    21   1 H    0.999 --    47 C    0.965
    22  28 Ni   3.497 --    23 C    0.813    31 O    0.748     5 N    0.570
                            12 N    0.518    27 C    0.132
    23   6 C    3.946 --    27 C    0.994    24 N    0.974    25 H    0.911
                            22 Ni   0.813
    24   7 N    3.492 --    30 C    1.082    28 C    1.043    23 C    0.974
                            33 O    0.115
    25   1 H    0.996 --    23 C    0.911
    26   1 H    0.996 --    38 C    0.948
    27   6 C    3.986 --    29 C    1.349    38 C    1.340    23 C    0.994
                            22 Ni   0.132
    28   6 C    3.942 --    33 O    1.607    31 O    1.199    24 N    1.043
    29   6 C    3.989 --    40 C    1.459    27 C    1.349    37 H    0.964
                            41 C    0.104
    30   6 C    3.965 --    47 C    1.362    34 C    1.355    24 N    1.082
    31   8 O    2.335 --    28 C    1.199    22 Ni   0.748    33 O    0.146
    32   6 C    3.991 --    34 C    1.463    46 C    1.424    36 H    0.971
                            47 C    0.103
    33   8 O    1.972 --    28 C    1.607    31 O    0.146    24 N    0.115
    34   6 C    3.986 --    32 C    1.463    30 C    1.355    35 H    0.964
                            42 C    0.107
    35   1 H    0.996 --    34 C    0.964
    36   1 H    0.998 --    32 C    0.971
    37   1 H    0.999 --    29 C    0.964
    38   6 C    3.991 --    41 C    1.454    27 C    1.340    26 H    0.948
                            40 C    0.104
    39   1 H    0.999 --    41 C    0.971
    40   6 C    3.992 --    29 C    1.459    45 C    1.427    43 H    0.971
                            38 C    0.104
    41   6 C    3.992 --    38 C    1.454    45 C    1.429    39 H    0.971
                            29 C    0.104
    42   6 C    3.992 --    47 C    1.451    46 C    1.435    48 H    0.972
                            34 C    0.107
    43   1 H    0.999 --    40 C    0.971
    44   1 H    0.999 --    46 C    0.972
    45   6 C    3.984 --    41 C    1.429    40 C    1.427    49 H    0.972
    46   6 C    3.983 --    42 C    1.435    32 C    1.424    44 H    0.972
    47   6 C    3.987 --    42 C    1.451    30 C    1.362    21 H    0.965
                            32 C    0.103
    48   1 H    0.999 --    42 C    0.972
    49   1 H    0.999 --    45 C    0.972
 ---------------------------------------------------------------------------

Topologies differ in total number of bonds
Writing topology from bond orders to xtbtopo.mol

molecular dipole:
                 x           y           z       tot (Debye)
 q only:       -2.911       1.530      -3.192
   full:       -3.142       1.782      -3.967      13.636
molecular quadrupole (traceless):
                xx          xy          yy          xz          yz          zz
 q only:       -2.966      24.935     -64.170      61.313      26.436      67.136
  q+dip:      -15.278      23.548     -71.921      67.423      32.415      87.200
   full:       -8.546      26.571     -76.464      68.004      32.590      85.010


           -------------------------------------------------
          | TOTAL ENERGY              -82.831069068057 Eh   |
          | GRADIENT NORM               0.022788338334 Eh/α |
          | HOMO-LUMO GAP               0.630997712326 eV   |
           -------------------------------------------------

------------------------------------------------------------------------
 * finished run on 2026/01/15 at 09:37:09.052     
------------------------------------------------------------------------
 total:
 * wall-time:     0 d,  0 h,  0 min,  0.099 sec
 *  cpu-time:     0 d,  0 h,  0 min,  1.492 sec
 * ratio c/w:    15.066 speedup
 SCF:
 * wall-time:     0 d,  0 h,  0 min,  0.074 sec
 *  cpu-time:     0 d,  0 h,  0 min,  1.155 sec
 * ratio c/w:    15.515 speedup

