      -----------------------------------------------------------      
     |                   =====================                   |     
     |                           x T B                           |     
     |                   =====================                   |     
     |                         S. Grimme                         |     
     |          Mulliken Center for Theoretical Chemistry        |     
     |                    University of Bonn                     |     
      -----------------------------------------------------------      

   * xtb version 6.7.0 (08769fc) compiled by 'albert@albert-system' on 2024-03-04

   xtb is free software: you can redistribute it and/or modify it under
   the terms of the GNU Lesser General Public License as published by
   the Free Software Foundation, either version 3 of the License, or
   (at your option) any later version.
   
   xtb is distributed in the hope that it will be useful,
   but WITHOUT ANY WARRANTY; without even the implied warranty of
   MERCHANTABILITY or FITNESS FOR A PARTICULAR PURPOSE.  See the
   GNU Lesser General Public License for more details.
   
   Cite this work as:
   * C. Bannwarth, E. Caldeweyher, S. Ehlert, A. Hansen, P. Pracht,
     J. Seibert, S. Spicher, S. Grimme, WIREs Comput. Mol. Sci., 2020, 11,
     e01493. DOI: 10.1002/wcms.1493
   
   for GFN2-xTB:
   * C. Bannwarth, S. Ehlert and S. Grimme., J. Chem. Theory Comput., 2019,
     15, 1652-1671. DOI: 10.1021/acs.jctc.8b01176
   for GFN1-xTB:
   * S. Grimme, C. Bannwarth, P. Shushkov, J. Chem. Theory Comput., 2017,
     13, 1989-2009. DOI: 10.1021/acs.jctc.7b00118
   for GFN0-xTB:
   * P. Pracht, E. Caldeweyher, S. Ehlert, S. Grimme, ChemRxiv, 2019, preprint.
     DOI: 10.26434/chemrxiv.8326202.v1
   for GFN-FF:
   * S. Spicher and S. Grimme, Angew. Chem. Int. Ed., 2020, 59, 15665-15673.
     DOI: 10.1002/anie.202004239
   
   for ALPB and GBSA implicit solvation:
   * S. Ehlert, M. Stahn, S. Spicher, S. Grimme, J. Chem. Theory Comput.,
     2021, 17, 4250-4261. DOI: 10.1021/acs.jctc.1c00471
   
   for ddCOSMO and CPCM-X implicit solvation:
   * M. Stahn, S. Ehlert, S. Grimme, J. Phys. Chem. A,
     2023, XX, XXXX-XXXX. DOI: 10.1021/acs.jpca.3c04382
   
   for DFT-D4:
   * E. Caldeweyher, C. Bannwarth and S. Grimme, J. Chem. Phys., 2017,
     147, 034112. DOI: 10.1063/1.4993215
   * E. Caldeweyher, S. Ehlert, A. Hansen, H. Neugebauer, S. Spicher,
     C. Bannwarth and S. Grimme, J. Chem. Phys., 2019, 150, 154122.
     DOI: 10.1063/1.5090222
   * E. Caldeweyher, J.-M. Mewes, S. Ehlert and S. Grimme, Phys. Chem. Chem. Phys.
     2020, 22, 8499-8512. DOI: 10.1039/D0CP00502A
   
   for sTDA-xTB:
   * S. Grimme and C. Bannwarth, J. Chem. Phys., 2016, 145, 054103.
     DOI: 10.1063/1.4959605
   
   in the mass-spec context:
   * V. Asgeirsson, C. Bauer and S. Grimme, Chem. Sci., 2017, 8, 4879.
     DOI: 10.1039/c7sc00601b
   * J. Koopman and S. Grimme, ACS Omega 2019, 4, 12, 15120-15133.
     DOI: 10.1021/acsomega.9b02011
   
   for metadynamics refer to:
   * S. Grimme, J. Chem. Theory Comput., 2019, 155, 2847-2862
     DOI: 10.1021/acs.jctc.9b00143
   
   for SPH calculations refer to:
   * S. Spicher and S. Grimme, J. Chem. Theory Comput., 2021, 17, 1701-1714
     DOI: 10.1021/acs.jctc.0c01306
   
   for ONIOM refer to:
   * C. Plett, A. Katbashev, S. Ehlert, S. Grimme, M. Bursch,
     Phys. Chem. Chem. Phys., 2023, 25, 17860-17868. DOI: 10.1039/D3CP02178E
   
   for DIPRO refer to:
   * J. Kohn, N. Gildemeister, S. Grimme, D. Fazzi, A. Hansen,
     J. Chem. Phys., 2023, just accepted.
   
   for PTB refer to:
   * S. Grimme, M. Mueller, A. Hansen, J. Chem. Phys., 2023, 158, 124111.
     DOI: 10.1063/5.0137838
   
   with help from (in alphabetical order)
   P. Atkinson, C. Bannwarth, F. Bohle, G. Brandenburg, E. Caldeweyher
   M. Checinski, S. Dohm, S. Ehlert, S. Ehrlich, I. Gerasimov, C. Hölzer
   A. Katbashev, J. Kohn, J. Koopman, C. Lavigne, S. Lehtola, F. März, M. Müller,
   F. Musil, H. Neugebauer, J. Pisarek, C. Plett, P. Pracht, F. Pultar,
   J. Seibert, P. Shushkov, S. Spicher, M. Stahn, M. Steiner, T. Strunk,
   J. Stückrath, T. Rose, and J. Unsleber
   
 * started run on 2026/01/15 at 09:37:13.438     
   ID    Z sym.   atoms
    1    6 C      1-4, 6-11, 23, 27-30, 32, 34, 38, 40-42, 45-47
    2    7 N      5, 12, 24
    3    1 H      13-21, 25, 26, 35-37, 39, 43, 44, 48, 49
    4   28 Ni     22
    5    8 O      31, 33

           -------------------------------------------------
          |                Calculation Setup                |
           -------------------------------------------------

          program call               : xtb isomer1_embed_55.xyz --sp
          coordinate file            : isomer1_embed_55.xyz
          omp threads                :                    16


           -------------------------------------------------
          |                 G F N 2 - x T B                 |
           -------------------------------------------------

        Reference                      10.1021/acs.jctc.8b01176
      * Hamiltonian:
        H0-scaling (s, p, d)           1.850000    2.230000    2.230000
        zeta-weighting                 0.500000
      * Dispersion:
        s8                             2.700000
        a1                             0.520000
        a2                             5.000000
        s9                             5.000000
      * Repulsion:
        kExp                           1.500000    1.000000
        rExp                           1.000000
      * Coulomb:
        alpha                          2.000000
        third order                    shell-resolved
        anisotropic                    true
        a3                             3.000000
        a5                             4.000000
        cn-shift                       1.200000
        cn-exp                         4.000000
        max-rad                        5.000000

q/qsh data taken from xtbrestart
CAMM data taken from xtbrestart

          ...................................................
          :                      SETUP                      :
          :.................................................:
          :  # basis functions                 145          :
          :  # atomic orbitals                 144          :
          :  # shells                           80          :
          :  # electrons                       152          :
          :  max. iterations                   250          :
          :  Hamiltonian                  GFN2-xTB          :
          :  restarted?                       true          :
          :  GBSA solvation                  false          :
          :  PC potential                    false          :
          :  electronic temp.          300.0000000     K    :
          :  accuracy                    1.0000000          :
          :  -> integral cutoff          0.2500000E+02      :
          :  -> integral neglect         0.1000000E-07      :
          :  -> SCF convergence          0.1000000E-05 Eh   :
          :  -> wf. convergence          0.1000000E-03 e    :
          :  Broyden damping             0.4000000          :
          :  net charge                          0          :
          :  unpaired electrons                  0          :
          ...................................................

 iter      E             dE          RMSdq      gap      omega  full diag
   1    -84.0525158 -0.840525E+02  0.567E+00    0.91       0.0  T
   2    -84.0833247 -0.308089E-01  0.356E+00    0.84       1.0  T
   3    -84.0050298  0.782950E-01  0.134E+00    0.75       1.0  T
   4    -84.0964064 -0.913766E-01  0.531E-01    0.56       1.0  T
   5    -84.1021921 -0.578573E-02  0.317E-01    0.67       1.0  T
   6    -84.1019478  0.244323E-03  0.218E-01    0.59       1.0  T
   7    -84.1028223 -0.874504E-03  0.985E-02    0.65       1.0  T
   8    -84.1028429 -0.206199E-04  0.664E-02    0.66       1.0  T
   9    -84.1028885 -0.455864E-04  0.292E-02    0.68       1.0  T
  10    -84.1029007 -0.121584E-04  0.166E-02    0.67       1.0  T
  11    -84.1029023 -0.165358E-05  0.873E-03    0.67       1.6  T
  12    -84.1029034 -0.105124E-05  0.336E-03    0.67       4.3  T
  13    -84.1029035 -0.141254E-06  0.150E-03    0.67       9.5  T
  14    -84.1029035 -0.300840E-07  0.855E-04    0.67      16.7  T
  15    -84.1029035 -0.323369E-08  0.290E-04    0.67      49.2  T

   *** convergence criteria satisfied after 15 iterations ***

         #    Occupation            Energy/Eh            Energy/eV
      -------------------------------------------------------------
         1        2.0000           -0.7149611             -19.4551
       ...           ...                  ...                  ...
        70        2.0000           -0.3775089             -10.2725
        71        2.0000           -0.3760650             -10.2332
        72        2.0000           -0.3739102             -10.1746
        73        2.0000           -0.3658094              -9.9542
        74        2.0000           -0.3615668              -9.8387
        75        2.0000           -0.3559009              -9.6846
        76        2.0000           -0.3395915              -9.2408 (HOMO)
        77        0.0000           -0.3149490              -8.5702 (LUMO)
        78                         -0.2945237              -8.0144
        79                         -0.2844797              -7.7411
        80                         -0.2552982              -6.9470
        81                         -0.2450862              -6.6691
       ...                                ...                  ...
       144                          1.6121927              43.8700
      -------------------------------------------------------------
                  HL-Gap            0.0246425 Eh            0.6706 eV
             Fermi-level           -0.3272702 Eh           -8.9055 eV

 SCC (total)                   0 d,  0 h,  0 min,  0.063 sec
 SCC setup                      ...        0 min,  0.000 sec (  0.594%)
 Dispersion                     ...        0 min,  0.001 sec (  1.536%)
 classical contributions        ...        0 min,  0.000 sec (  0.097%)
 integral evaluation            ...        0 min,  0.006 sec (  8.882%)
 iterations                     ...        0 min,  0.049 sec ( 77.631%)
 molecular gradient             ...        0 min,  0.007 sec ( 10.532%)
 printout                       ...        0 min,  0.000 sec (  0.662%)

         :::::::::::::::::::::::::::::::::::::::::::::::::::::
         ::                     SUMMARY                     ::
         :::::::::::::::::::::::::::::::::::::::::::::::::::::
         :: total energy             -82.827196864324 Eh    ::
         :: gradient norm              0.021462960521 Eh/a0 ::
         :: HOMO-LUMO gap              0.670556310468 eV    ::
         ::.................................................::
         :: SCC energy               -84.101066650094 Eh    ::
         :: -> isotropic ES            0.096775021094 Eh    ::
         :: -> anisotropic ES          0.001451441394 Eh    ::
         :: -> anisotropic XC          0.036470206893 Eh    ::
         :: -> dispersion             -0.072474086973 Eh    ::
         :: repulsion energy           1.273869785770 Eh    ::
         :: add. restraining           0.000000000000 Eh    ::
         :: total charge               0.000000000000 e     ::
         :::::::::::::::::::::::::::::::::::::::::::::::::::::

           -------------------------------------------------
          |                Property Printout                |
           -------------------------------------------------

    * Orbital Energies and Occupations

         #    Occupation            Energy/Eh            Energy/eV
      -------------------------------------------------------------
         1        2.0000           -0.7149611             -19.4551
       ...           ...                  ...                  ...
        64        2.0000           -0.4094003             -11.1404
        65        2.0000           -0.4072457             -11.0817
        66        2.0000           -0.4052007             -11.0261
        67        2.0000           -0.4033803             -10.9765
        68        2.0000           -0.3930989             -10.6968
        69        2.0000           -0.3837386             -10.4421
        70        2.0000           -0.3775089             -10.2725
        71        2.0000           -0.3760650             -10.2332
        72        2.0000           -0.3739102             -10.1746
        73        2.0000           -0.3658094              -9.9542
        74        2.0000           -0.3615668              -9.8387
        75        2.0000           -0.3559009              -9.6846
        76        2.0000           -0.3395915              -9.2408 (HOMO)
        77        0.0000           -0.3149490              -8.5702 (LUMO)
        78                         -0.2945237              -8.0144
        79                         -0.2844797              -7.7411
        80                         -0.2552982              -6.9470
        81                         -0.2450862              -6.6691
        82                         -0.2249552              -6.1213
        83                         -0.2117647              -5.7624
        84                         -0.1942234              -5.2851
        85                         -0.1933423              -5.2611
        86                         -0.1640873              -4.4650
        87                         -0.1339824              -3.6458
       ...                                ...                  ...
       144                          1.6121927              43.8700
      -------------------------------------------------------------
                  HL-Gap            0.0246425 Eh            0.6706 eV
             Fermi-level           -0.3272702 Eh           -8.9055 eV

     #   Z          covCN         q      C6AA      α(0)
     1   6 C        2.914    -0.026    28.651     8.777
     2   6 C        2.924    -0.007    28.188     8.707
     3   6 C        2.915    -0.036    28.904     8.816
     4   6 C        3.259     0.093    24.876     8.061
     5   7 N        2.645    -0.012    21.499     6.886
     6   6 C        2.887     0.064    26.557     8.449
     7   6 C        3.189     0.092    25.514     8.240
     8   6 C        2.917    -0.038    28.952     8.823
     9   6 C        2.925    -0.008    28.228     8.713
    10   6 C        2.915    -0.030    28.745     8.792
    11   6 C        2.889     0.051    26.859     8.497
    12   7 N        2.646    -0.026    21.752     6.927
    13   1 H        0.926     0.061     2.183     2.310
    14   1 H        0.926     0.054     2.269     2.356
    15   1 H        0.926     0.048     2.350     2.397
    16   1 H        0.925     0.097     1.814     2.106
    17   1 H        0.926     0.053     2.279     2.361
    18   1 H        0.926     0.058     2.228     2.334
    19   1 H        0.926     0.062     2.179     2.308
    20   1 H        0.926     0.078     2.000     2.212
    21   1 H        0.926     0.024     2.669     2.555
    22  28 Ni       3.843    -0.275   249.970    30.981
    23   6 C        3.696     0.049    19.920     6.385
    24   7 N        2.753    -0.124    23.698     7.230
    25   1 H        0.922     0.060     2.199     2.319
    26   1 H        0.926     0.027     2.626     2.534
    27   6 C        3.000     0.025    27.441     8.593
    28   6 C        2.677     0.416    19.989     7.316
    29   6 C        2.924    -0.025    28.633     8.775
    30   6 C        2.909     0.073    26.366     8.420
    31   8 O        1.599    -0.334    19.637     5.981
    32   6 C        2.921    -0.030    28.745     8.792
    33   8 O        0.857    -0.469    23.105     6.445
    34   6 C        2.923    -0.048    29.190     8.860
    35   1 H        0.926     0.063     2.161     2.299
    36   1 H        0.926     0.029     2.606     2.524
    37   1 H        0.925     0.055     2.260     2.351
    38   6 C        2.922    -0.042    29.054     8.839
    39   1 H        0.926     0.029     2.607     2.525
    40   6 C        2.917    -0.032    28.790     8.799
    41   6 C        2.918    -0.033    28.818     8.803
    42   6 C        2.920    -0.033    28.834     8.806
    43   1 H        0.926     0.031     2.576     2.510
    44   1 H        0.926     0.022     2.703     2.571
    45   6 C        2.920    -0.036    28.890     8.814
    46   6 C        2.918    -0.043    29.061     8.840
    47   6 C        2.924    -0.056    29.382     8.889
    48   1 H        0.926     0.021     2.714     2.576
    49   1 H        0.926     0.029     2.600     2.521

 Mol. C6AA /au·bohr⁶  :      37473.216085
 Mol. C8AA /au·bohr⁸  :    1054823.257979
 Mol. α(0) /au        :        314.925236


Wiberg/Mayer (AO) data.
largest (>0.10) Wiberg bond orders for each atom

 ---------------------------------------------------------------------------
     #   Z sym  total        # sym  WBO       # sym  WBO       # sym  WBO
 ---------------------------------------------------------------------------
     1   6 C    3.979 --     2 C    1.428     6 C    1.420    13 H    0.968
     2   6 C    3.983 --     3 C    1.449     1 C    1.428    14 H    0.968
     3   6 C    3.990 --     2 C    1.449     4 C    1.373    15 H    0.964
                             6 C    0.103
     4   6 C    3.981 --     3 C    1.373     5 N    1.291     7 C    1.044
     5   7 N    3.470 --     6 C    1.399     4 C    1.291    22 Ni   0.519
     6   6 C    3.968 --     1 C    1.420     5 N    1.399    16 H    0.948
                             3 C    0.103
     7   6 C    3.980 --     8 C    1.378    12 N    1.296     4 C    1.044
     8   6 C    3.990 --     9 C    1.449     7 C    1.378    17 H    0.964
                            11 C    0.101
     9   6 C    3.984 --     8 C    1.449    10 C    1.420    18 H    0.968
    10   6 C    3.981 --    11 C    1.432     9 C    1.420    19 H    0.968
    11   6 C    3.974 --    10 C    1.432    12 N    1.388    20 H    0.951
                             8 C    0.101
    12   7 N    3.517 --    11 C    1.388     7 C    1.296    22 Ni   0.560
    13   1 H    0.996 --     1 C    0.968
    14   1 H    0.996 --     2 C    0.968
    15   1 H    0.997 --     3 C    0.964
    16   1 H    0.990 --     6 C    0.948
    17   1 H    0.997 --     8 C    0.964
    18   1 H    0.996 --     9 C    0.968
    19   1 H    0.996 --    10 C    0.968
    20   1 H    0.993 --    11 C    0.951
    21   1 H    0.999 --    47 C    0.965
    22  28 Ni   3.484 --    23 C    0.845    31 O    0.772    12 N    0.560
                             5 N    0.519
    23   6 C    3.944 --    27 C    1.007    24 N    0.949    25 H    0.888
                            22 Ni   0.845
    24   7 N    3.478 --    30 C    1.077    28 C    1.062    23 C    0.949
                            33 O    0.121
    25   1 H    0.994 --    23 C    0.888
    26   1 H    0.999 --    38 C    0.966
    27   6 C    3.988 --    38 C    1.373    29 C    1.358    23 C    1.007
                            45 C    0.102
    28   6 C    3.943 --    33 O    1.605    31 O    1.185    24 N    1.062
    29   6 C    3.992 --    40 C    1.460    27 C    1.358    37 H    0.944
                            41 C    0.106
    30   6 C    3.965 --    47 C    1.364    34 C    1.359    24 N    1.077
    31   8 O    2.340 --    28 C    1.185    22 Ni   0.772    33 O    0.142
    32   6 C    3.991 --    34 C    1.461    46 C    1.426    36 H    0.971
                            47 C    0.104
    33   8 O    1.979 --    28 C    1.605    31 O    0.142    24 N    0.121
    34   6 C    3.987 --    32 C    1.461    30 C    1.359    35 H    0.962
                            42 C    0.107
    35   1 H    0.996 --    34 C    0.962
    36   1 H    0.999 --    32 C    0.971
    37   1 H    0.997 --    29 C    0.944
    38   6 C    3.986 --    41 C    1.449    27 C    1.373    26 H    0.966
                            40 C    0.104
    39   1 H    0.998 --    41 C    0.971
    40   6 C    3.992 --    29 C    1.460    45 C    1.425    43 H    0.971
                            38 C    0.104
    41   6 C    3.992 --    38 C    1.449    45 C    1.436    39 H    0.971
                            29 C    0.106
    42   6 C    3.992 --    47 C    1.453    46 C    1.434    48 H    0.972
                            34 C    0.107
    43   1 H    0.999 --    40 C    0.971
    44   1 H    0.999 --    46 C    0.972
    45   6 C    3.986 --    41 C    1.436    40 C    1.425    49 H    0.972
                            27 C    0.102
    46   6 C    3.988 --    42 C    1.434    32 C    1.426    44 H    0.972
    47   6 C    3.988 --    42 C    1.453    30 C    1.364    21 H    0.965
                            32 C    0.104
    48   1 H    0.999 --    42 C    0.972
    49   1 H    0.999 --    45 C    0.972
 ---------------------------------------------------------------------------

Topologies differ in total number of bonds
Writing topology from bond orders to xtbtopo.mol

molecular dipole:
                 x           y           z       tot (Debye)
 q only:        1.068      -0.127      -4.578
   full:        1.018       0.020      -5.380      13.917
molecular quadrupole (traceless):
                xx          xy          yy          xz          yz          zz
 q only:      -28.205      12.977     -24.920     -36.224     -67.894      53.126
  q+dip:      -39.854       9.800     -20.485     -36.422     -81.021      60.339
   full:      -35.542      11.432     -25.859     -38.346     -82.458      61.402


           -------------------------------------------------
          | TOTAL ENERGY              -82.827196864324 Eh   |
          | GRADIENT NORM               0.021462960521 Eh/α |
          | HOMO-LUMO GAP               0.670556310468 eV   |
           -------------------------------------------------

------------------------------------------------------------------------
 * finished run on 2026/01/15 at 09:37:13.523     
------------------------------------------------------------------------
 total:
 * wall-time:     0 d,  0 h,  0 min,  0.085 sec
 *  cpu-time:     0 d,  0 h,  0 min,  1.276 sec
 * ratio c/w:    15.055 speedup
 SCF:
 * wall-time:     0 d,  0 h,  0 min,  0.063 sec
 *  cpu-time:     0 d,  0 h,  0 min,  0.996 sec
 * ratio c/w:    15.736 speedup

