      -----------------------------------------------------------      
     |                   =====================                   |     
     |                           x T B                           |     
     |                   =====================                   |     
     |                         S. Grimme                         |     
     |          Mulliken Center for Theoretical Chemistry        |     
     |                    University of Bonn                     |     
      -----------------------------------------------------------      

   * xtb version 6.7.0 (08769fc) compiled by 'albert@albert-system' on 2024-03-04

   xtb is free software: you can redistribute it and/or modify it under
   the terms of the GNU Lesser General Public License as published by
   the Free Software Foundation, either version 3 of the License, or
   (at your option) any later version.
   
   xtb is distributed in the hope that it will be useful,
   but WITHOUT ANY WARRANTY; without even the implied warranty of
   MERCHANTABILITY or FITNESS FOR A PARTICULAR PURPOSE.  See the
   GNU Lesser General Public License for more details.
   
   Cite this work as:
   * C. Bannwarth, E. Caldeweyher, S. Ehlert, A. Hansen, P. Pracht,
     J. Seibert, S. Spicher, S. Grimme, WIREs Comput. Mol. Sci., 2020, 11,
     e01493. DOI: 10.1002/wcms.1493
   
   for GFN2-xTB:
   * C. Bannwarth, S. Ehlert and S. Grimme., J. Chem. Theory Comput., 2019,
     15, 1652-1671. DOI: 10.1021/acs.jctc.8b01176
   for GFN1-xTB:
   * S. Grimme, C. Bannwarth, P. Shushkov, J. Chem. Theory Comput., 2017,
     13, 1989-2009. DOI: 10.1021/acs.jctc.7b00118
   for GFN0-xTB:
   * P. Pracht, E. Caldeweyher, S. Ehlert, S. Grimme, ChemRxiv, 2019, preprint.
     DOI: 10.26434/chemrxiv.8326202.v1
   for GFN-FF:
   * S. Spicher and S. Grimme, Angew. Chem. Int. Ed., 2020, 59, 15665-15673.
     DOI: 10.1002/anie.202004239
   
   for ALPB and GBSA implicit solvation:
   * S. Ehlert, M. Stahn, S. Spicher, S. Grimme, J. Chem. Theory Comput.,
     2021, 17, 4250-4261. DOI: 10.1021/acs.jctc.1c00471
   
   for ddCOSMO and CPCM-X implicit solvation:
   * M. Stahn, S. Ehlert, S. Grimme, J. Phys. Chem. A,
     2023, XX, XXXX-XXXX. DOI: 10.1021/acs.jpca.3c04382
   
   for DFT-D4:
   * E. Caldeweyher, C. Bannwarth and S. Grimme, J. Chem. Phys., 2017,
     147, 034112. DOI: 10.1063/1.4993215
   * E. Caldeweyher, S. Ehlert, A. Hansen, H. Neugebauer, S. Spicher,
     C. Bannwarth and S. Grimme, J. Chem. Phys., 2019, 150, 154122.
     DOI: 10.1063/1.5090222
   * E. Caldeweyher, J.-M. Mewes, S. Ehlert and S. Grimme, Phys. Chem. Chem. Phys.
     2020, 22, 8499-8512. DOI: 10.1039/D0CP00502A
   
   for sTDA-xTB:
   * S. Grimme and C. Bannwarth, J. Chem. Phys., 2016, 145, 054103.
     DOI: 10.1063/1.4959605
   
   in the mass-spec context:
   * V. Asgeirsson, C. Bauer and S. Grimme, Chem. Sci., 2017, 8, 4879.
     DOI: 10.1039/c7sc00601b
   * J. Koopman and S. Grimme, ACS Omega 2019, 4, 12, 15120-15133.
     DOI: 10.1021/acsomega.9b02011
   
   for metadynamics refer to:
   * S. Grimme, J. Chem. Theory Comput., 2019, 155, 2847-2862
     DOI: 10.1021/acs.jctc.9b00143
   
   for SPH calculations refer to:
   * S. Spicher and S. Grimme, J. Chem. Theory Comput., 2021, 17, 1701-1714
     DOI: 10.1021/acs.jctc.0c01306
   
   for ONIOM refer to:
   * C. Plett, A. Katbashev, S. Ehlert, S. Grimme, M. Bursch,
     Phys. Chem. Chem. Phys., 2023, 25, 17860-17868. DOI: 10.1039/D3CP02178E
   
   for DIPRO refer to:
   * J. Kohn, N. Gildemeister, S. Grimme, D. Fazzi, A. Hansen,
     J. Chem. Phys., 2023, just accepted.
   
   for PTB refer to:
   * S. Grimme, M. Mueller, A. Hansen, J. Chem. Phys., 2023, 158, 124111.
     DOI: 10.1063/5.0137838
   
   with help from (in alphabetical order)
   P. Atkinson, C. Bannwarth, F. Bohle, G. Brandenburg, E. Caldeweyher
   M. Checinski, S. Dohm, S. Ehlert, S. Ehrlich, I. Gerasimov, C. Hölzer
   A. Katbashev, J. Kohn, J. Koopman, C. Lavigne, S. Lehtola, F. März, M. Müller,
   F. Musil, H. Neugebauer, J. Pisarek, C. Plett, P. Pracht, F. Pultar,
   J. Seibert, P. Shushkov, S. Spicher, M. Stahn, M. Steiner, T. Strunk,
   J. Stückrath, T. Rose, and J. Unsleber
   
 * started run on 2026/01/15 at 09:37:12.114     
   ID    Z sym.   atoms
    1    6 C      1-4, 6-11, 23, 27-30, 32, 34, 38, 40-42, 45-47
    2    7 N      5, 12, 24
    3    1 H      13-21, 25, 26, 35-37, 39, 43, 44, 48, 49
    4   28 Ni     22
    5    8 O      31, 33

           -------------------------------------------------
          |                Calculation Setup                |
           -------------------------------------------------

          program call               : xtb isomer1_embed_43.xyz --sp
          coordinate file            : isomer1_embed_43.xyz
          omp threads                :                    16


           -------------------------------------------------
          |                 G F N 2 - x T B                 |
           -------------------------------------------------

        Reference                      10.1021/acs.jctc.8b01176
      * Hamiltonian:
        H0-scaling (s, p, d)           1.850000    2.230000    2.230000
        zeta-weighting                 0.500000
      * Dispersion:
        s8                             2.700000
        a1                             0.520000
        a2                             5.000000
        s9                             5.000000
      * Repulsion:
        kExp                           1.500000    1.000000
        rExp                           1.000000
      * Coulomb:
        alpha                          2.000000
        third order                    shell-resolved
        anisotropic                    true
        a3                             3.000000
        a5                             4.000000
        cn-shift                       1.200000
        cn-exp                         4.000000
        max-rad                        5.000000

q/qsh data taken from xtbrestart
CAMM data taken from xtbrestart

          ...................................................
          :                      SETUP                      :
          :.................................................:
          :  # basis functions                 145          :
          :  # atomic orbitals                 144          :
          :  # shells                           80          :
          :  # electrons                       152          :
          :  max. iterations                   250          :
          :  Hamiltonian                  GFN2-xTB          :
          :  restarted?                       true          :
          :  GBSA solvation                  false          :
          :  PC potential                    false          :
          :  electronic temp.          300.0000000     K    :
          :  accuracy                    1.0000000          :
          :  -> integral cutoff          0.2500000E+02      :
          :  -> integral neglect         0.1000000E-07      :
          :  -> SCF convergence          0.1000000E-05 Eh   :
          :  -> wf. convergence          0.1000000E-03 e    :
          :  Broyden damping             0.4000000          :
          :  net charge                          0          :
          :  unpaired electrons                  0          :
          ...................................................

 iter      E             dE          RMSdq      gap      omega  full diag
   1    -84.0758943 -0.840759E+02  0.581E+00    0.30       0.0  T
   2    -84.0936182 -0.177239E-01  0.356E+00    0.75       1.0  T
   3    -84.0196073  0.740109E-01  0.115E+00    0.18       1.0  T
   4    -84.0962778 -0.766705E-01  0.491E-01    1.13       1.0  T
   5    -84.1012383 -0.496049E-02  0.383E-01    0.61       1.0  T
   6    -84.1032878 -0.204952E-02  0.213E-01    0.46       1.0  T
   7    -84.1031202  0.167597E-03  0.149E-01    0.44       1.0  T
   8    -84.1037414 -0.621188E-03  0.688E-02    0.57       1.0  T
   9    -84.1037964 -0.550012E-04  0.476E-02    0.58       1.0  T
  10    -84.1038110 -0.145275E-04  0.213E-02    0.58       1.0  T
  11    -84.1038171 -0.617187E-05  0.105E-02    0.57       1.4  T
  12    -84.1038177 -0.611398E-06  0.535E-03    0.57       2.7  T
  13    -84.1038181 -0.378156E-06  0.215E-03    0.57       6.6  T
  14    -84.1038182 -0.643850E-07  0.975E-04    0.57      14.7  T
  15    -84.1038182 -0.118686E-07  0.532E-04    0.57      26.9  T

   *** convergence criteria satisfied after 15 iterations ***

         #    Occupation            Energy/Eh            Energy/eV
      -------------------------------------------------------------
         1        2.0000           -0.7127590             -19.3952
       ...           ...                  ...                  ...
        70        2.0000           -0.3780117             -10.2862
        71        2.0000           -0.3740834             -10.1793
        72        2.0000           -0.3736882             -10.1686
        73        2.0000           -0.3644201              -9.9164
        74        2.0000           -0.3606695              -9.8143
        75        2.0000           -0.3543079              -9.6412
        76        2.0000           -0.3393255              -9.2335 (HOMO)
        77        0.0000           -0.3183020              -8.6614 (LUMO)
        78                         -0.2884628              -7.8495
        79                         -0.2828957              -7.6980
        80                         -0.2557001              -6.9580
        81                         -0.2424550              -6.5975
       ...                                ...                  ...
       144                          1.5459262              42.0668
      -------------------------------------------------------------
                  HL-Gap            0.0210235 Eh            0.5721 eV
             Fermi-level           -0.3288138 Eh           -8.9475 eV

 SCC (total)                   0 d,  0 h,  0 min,  0.072 sec
 SCC setup                      ...        0 min,  0.000 sec (  0.544%)
 Dispersion                     ...        0 min,  0.001 sec (  1.310%)
 classical contributions        ...        0 min,  0.000 sec (  0.096%)
 integral evaluation            ...        0 min,  0.005 sec (  7.076%)
 iterations                     ...        0 min,  0.056 sec ( 77.398%)
 molecular gradient             ...        0 min,  0.009 sec ( 12.800%)
 printout                       ...        0 min,  0.001 sec (  0.715%)

         :::::::::::::::::::::::::::::::::::::::::::::::::::::
         ::                     SUMMARY                     ::
         :::::::::::::::::::::::::::::::::::::::::::::::::::::
         :: total energy             -82.830551116927 Eh    ::
         :: gradient norm              0.026139698266 Eh/a0 ::
         :: HOMO-LUMO gap              0.572077977613 eV    ::
         ::.................................................::
         :: SCC energy               -84.102556954623 Eh    ::
         :: -> isotropic ES            0.095797980418 Eh    ::
         :: -> anisotropic ES          0.001787412607 Eh    ::
         :: -> anisotropic XC          0.035627389090 Eh    ::
         :: -> dispersion             -0.068461232202 Eh    ::
         :: repulsion energy           1.272005837696 Eh    ::
         :: add. restraining           0.000000000000 Eh    ::
         :: total charge               0.000000000004 e     ::
         :::::::::::::::::::::::::::::::::::::::::::::::::::::

           -------------------------------------------------
          |                Property Printout                |
           -------------------------------------------------

    * Orbital Energies and Occupations

         #    Occupation            Energy/Eh            Energy/eV
      -------------------------------------------------------------
         1        2.0000           -0.7127590             -19.3952
       ...           ...                  ...                  ...
        64        2.0000           -0.4058669             -11.0442
        65        2.0000           -0.4038206             -10.9885
        66        2.0000           -0.4035898             -10.9822
        67        2.0000           -0.4017263             -10.9315
        68        2.0000           -0.3906884             -10.6312
        69        2.0000           -0.3788839             -10.3100
        70        2.0000           -0.3780117             -10.2862
        71        2.0000           -0.3740834             -10.1793
        72        2.0000           -0.3736882             -10.1686
        73        2.0000           -0.3644201              -9.9164
        74        2.0000           -0.3606695              -9.8143
        75        2.0000           -0.3543079              -9.6412
        76        2.0000           -0.3393255              -9.2335 (HOMO)
        77        0.0000           -0.3183020              -8.6614 (LUMO)
        78                         -0.2884628              -7.8495
        79                         -0.2828957              -7.6980
        80                         -0.2557001              -6.9580
        81                         -0.2424550              -6.5975
        82                         -0.2205424              -6.0013
        83                         -0.2107783              -5.7356
        84                         -0.1953442              -5.3156
        85                         -0.1942304              -5.2853
        86                         -0.1649656              -4.4889
        87                         -0.1321862              -3.5970
       ...                                ...                  ...
       144                          1.5459262              42.0668
      -------------------------------------------------------------
                  HL-Gap            0.0210235 Eh            0.5721 eV
             Fermi-level           -0.3288138 Eh           -8.9475 eV

     #   Z          covCN         q      C6AA      α(0)
     1   6 C        2.915    -0.029    28.720     8.788
     2   6 C        2.924    -0.008    28.225     8.712
     3   6 C        2.915    -0.036    28.904     8.816
     4   6 C        2.995     0.078    26.238     8.403
     5   7 N        2.647     0.002    21.230     6.843
     6   6 C        2.889     0.058    26.701     8.472
     7   6 C        3.009     0.081    26.184     8.394
     8   6 C        2.919    -0.037    28.913     8.818
     9   6 C        2.923    -0.010    28.266     8.719
    10   6 C        2.917    -0.031    28.782     8.798
    11   6 C        2.896     0.046    26.963     8.514
    12   7 N        2.639    -0.017    21.599     6.902
    13   1 H        0.926     0.061     2.192     2.315
    14   1 H        0.926     0.053     2.282     2.362
    15   1 H        0.926     0.049     2.336     2.390
    16   1 H        0.925     0.115     1.651     2.009
    17   1 H        0.926     0.054     2.275     2.359
    18   1 H        0.926     0.056     2.246     2.343
    19   1 H        0.926     0.060     2.195     2.317
    20   1 H        0.926     0.087     1.909     2.161
    21   1 H        0.926     0.025     2.665     2.553
    22  28 Ni       3.364    -0.280   189.123    28.376
    23   6 C        3.692     0.041    20.068     6.410
    24   7 N        2.754    -0.125    23.710     7.232
    25   1 H        0.922     0.054     2.269     2.356
    26   1 H        0.925     0.060     2.202     2.321
    27   6 C        2.983     0.023    27.493     8.601
    28   6 C        2.674     0.415    20.015     7.321
    29   6 C        2.922    -0.041    29.011     8.833
    30   6 C        2.910     0.074    26.346     8.417
    31   8 O        1.600    -0.329    19.562     5.969
    32   6 C        2.920    -0.029    28.735     8.791
    33   8 O        0.857    -0.474    23.226     6.461
    34   6 C        2.924    -0.044    29.087     8.844
    35   1 H        0.926     0.058     2.218     2.329
    36   1 H        0.926     0.029     2.598     2.521
    37   1 H        0.925     0.027     2.630     2.536
    38   6 C        2.925    -0.024    28.600     8.770
    39   1 H        0.926     0.031     2.573     2.508
    40   6 C        2.918    -0.032    28.804     8.801
    41   6 C        2.918    -0.031    28.773     8.796
    42   6 C        2.920    -0.033    28.830     8.805
    43   1 H        0.926     0.029     2.597     2.520
    44   1 H        0.926     0.023     2.690     2.565
    45   6 C        2.920    -0.034    28.849     8.808
    46   6 C        2.919    -0.041    29.028     8.835
    47   6 C        2.924    -0.052    29.296     8.876
    48   1 H        0.926     0.022     2.700     2.570
    49   1 H        0.926     0.029     2.599     2.521

 Mol. C6AA /au·bohr⁶  :      36678.194473
 Mol. C8AA /au·bohr⁸  :    1015962.601906
 Mol. α(0) /au        :        312.679249


Wiberg/Mayer (AO) data.
largest (>0.10) Wiberg bond orders for each atom

 ---------------------------------------------------------------------------
     #   Z sym  total        # sym  WBO       # sym  WBO       # sym  WBO
 ---------------------------------------------------------------------------
     1   6 C    3.977 --     2 C    1.427     6 C    1.421    13 H    0.968
     2   6 C    3.985 --     3 C    1.447     1 C    1.427    14 H    0.969
     3   6 C    3.989 --     2 C    1.447     4 C    1.380    15 H    0.963
                             6 C    0.102
     4   6 C    3.979 --     3 C    1.380     5 N    1.305     7 C    1.060
     5   7 N    3.529 --     6 C    1.401     4 C    1.305    22 Ni   0.556
     6   6 C    3.965 --     1 C    1.421     5 N    1.401    16 H    0.937
                             3 C    0.102
     7   6 C    3.978 --     8 C    1.387    12 N    1.287     4 C    1.060
     8   6 C    3.989 --     9 C    1.446     7 C    1.387    17 H    0.962
     9   6 C    3.980 --     8 C    1.446    10 C    1.416    18 H    0.968
    10   6 C    3.978 --    11 C    1.435     9 C    1.416    19 H    0.968
    11   6 C    3.972 --    10 C    1.435    12 N    1.383    20 H    0.940
    12   7 N    3.543 --    11 C    1.383     7 C    1.287    22 Ni   0.604
    13   1 H    0.996 --     1 C    0.968
    14   1 H    0.996 --     2 C    0.969
    15   1 H    0.997 --     3 C    0.963
    16   1 H    0.986 --     6 C    0.937
    17   1 H    0.997 --     8 C    0.962
    18   1 H    0.996 --     9 C    0.968
    19   1 H    0.996 --    10 C    0.968
    20   1 H    0.992 --    11 C    0.940
    21   1 H    0.999 --    47 C    0.965
    22  28 Ni   3.531 --    23 C    0.858    31 O    0.780    12 N    0.604
                             5 N    0.556
    23   6 C    3.932 --    27 C    0.994    24 N    0.939    25 H    0.886
                            22 Ni   0.858
    24   7 N    3.474 --    28 C    1.074    30 C    1.073    23 C    0.939
                            33 O    0.126
    25   1 H    0.995 --    23 C    0.886
    26   1 H    0.996 --    38 C    0.937
    27   6 C    3.988 --    29 C    1.386    38 C    1.367    23 C    0.994
                            45 C    0.105
    28   6 C    3.943 --    33 O    1.605    31 O    1.176    24 N    1.074
    29   6 C    3.986 --    40 C    1.442    27 C    1.386    37 H    0.965
                            41 C    0.105
    30   6 C    3.967 --    47 C    1.366    34 C    1.362    24 N    1.073
    31   8 O    2.346 --    28 C    1.176    22 Ni   0.780    33 O    0.137
    32   6 C    3.991 --    34 C    1.460    46 C    1.427    36 H    0.971
                            47 C    0.104
    33   8 O    1.970 --    28 C    1.605    31 O    0.137    24 N    0.126
    34   6 C    3.986 --    32 C    1.460    30 C    1.362    35 H    0.965
                            42 C    0.107
    35   1 H    0.997 --    34 C    0.965
    36   1 H    0.999 --    32 C    0.971
    37   1 H    0.999 --    29 C    0.965
    38   6 C    3.992 --    41 C    1.460    27 C    1.367    26 H    0.937
                            40 C    0.108
    39   1 H    0.999 --    41 C    0.971
    40   6 C    3.991 --    29 C    1.442    45 C    1.440    43 H    0.971
                            38 C    0.108
    41   6 C    3.992 --    38 C    1.460    45 C    1.424    39 H    0.971
                            29 C    0.105
    42   6 C    3.992 --    47 C    1.453    46 C    1.433    48 H    0.971
                            34 C    0.107
    43   1 H    0.998 --    40 C    0.971
    44   1 H    0.999 --    46 C    0.972
    45   6 C    3.987 --    40 C    1.440    41 C    1.424    49 H    0.972
                            27 C    0.105
    46   6 C    3.986 --    42 C    1.433    32 C    1.427    44 H    0.972
    47   6 C    3.986 --    42 C    1.453    30 C    1.366    21 H    0.965
                            32 C    0.104
    48   1 H    0.999 --    42 C    0.971
    49   1 H    0.999 --    45 C    0.972
 ---------------------------------------------------------------------------

Topologies differ in total number of bonds
Writing topology from bond orders to xtbtopo.mol

molecular dipole:
                 x           y           z       tot (Debye)
 q only:       -1.759       3.700      -2.485
   full:       -2.174       4.164      -2.899      14.030
molecular quadrupole (traceless):
                xx          xy          yy          xz          yz          zz
 q only:       41.817     -59.855     -33.086      60.612     -22.543      -8.731
  q+dip:       56.667     -65.453     -41.572      71.926     -26.504     -15.094
   full:       52.772     -68.975     -42.196      69.806     -24.702     -10.575


           -------------------------------------------------
          | TOTAL ENERGY              -82.830551116927 Eh   |
          | GRADIENT NORM               0.026139698266 Eh/α |
          | HOMO-LUMO GAP               0.572077977613 eV   |
           -------------------------------------------------

------------------------------------------------------------------------
 * finished run on 2026/01/15 at 09:37:12.204     
------------------------------------------------------------------------
 total:
 * wall-time:     0 d,  0 h,  0 min,  0.089 sec
 *  cpu-time:     0 d,  0 h,  0 min,  1.317 sec
 * ratio c/w:    14.787 speedup
 SCF:
 * wall-time:     0 d,  0 h,  0 min,  0.072 sec
 *  cpu-time:     0 d,  0 h,  0 min,  1.104 sec
 * ratio c/w:    15.316 speedup

