      -----------------------------------------------------------      
     |                   =====================                   |     
     |                           x T B                           |     
     |                   =====================                   |     
     |                         S. Grimme                         |     
     |          Mulliken Center for Theoretical Chemistry        |     
     |                    University of Bonn                     |     
      -----------------------------------------------------------      

   * xtb version 6.7.0 (08769fc) compiled by 'albert@albert-system' on 2024-03-04

   xtb is free software: you can redistribute it and/or modify it under
   the terms of the GNU Lesser General Public License as published by
   the Free Software Foundation, either version 3 of the License, or
   (at your option) any later version.
   
   xtb is distributed in the hope that it will be useful,
   but WITHOUT ANY WARRANTY; without even the implied warranty of
   MERCHANTABILITY or FITNESS FOR A PARTICULAR PURPOSE.  See the
   GNU Lesser General Public License for more details.
   
   Cite this work as:
   * C. Bannwarth, E. Caldeweyher, S. Ehlert, A. Hansen, P. Pracht,
     J. Seibert, S. Spicher, S. Grimme, WIREs Comput. Mol. Sci., 2020, 11,
     e01493. DOI: 10.1002/wcms.1493
   
   for GFN2-xTB:
   * C. Bannwarth, S. Ehlert and S. Grimme., J. Chem. Theory Comput., 2019,
     15, 1652-1671. DOI: 10.1021/acs.jctc.8b01176
   for GFN1-xTB:
   * S. Grimme, C. Bannwarth, P. Shushkov, J. Chem. Theory Comput., 2017,
     13, 1989-2009. DOI: 10.1021/acs.jctc.7b00118
   for GFN0-xTB:
   * P. Pracht, E. Caldeweyher, S. Ehlert, S. Grimme, ChemRxiv, 2019, preprint.
     DOI: 10.26434/chemrxiv.8326202.v1
   for GFN-FF:
   * S. Spicher and S. Grimme, Angew. Chem. Int. Ed., 2020, 59, 15665-15673.
     DOI: 10.1002/anie.202004239
   
   for ALPB and GBSA implicit solvation:
   * S. Ehlert, M. Stahn, S. Spicher, S. Grimme, J. Chem. Theory Comput.,
     2021, 17, 4250-4261. DOI: 10.1021/acs.jctc.1c00471
   
   for ddCOSMO and CPCM-X implicit solvation:
   * M. Stahn, S. Ehlert, S. Grimme, J. Phys. Chem. A,
     2023, XX, XXXX-XXXX. DOI: 10.1021/acs.jpca.3c04382
   
   for DFT-D4:
   * E. Caldeweyher, C. Bannwarth and S. Grimme, J. Chem. Phys., 2017,
     147, 034112. DOI: 10.1063/1.4993215
   * E. Caldeweyher, S. Ehlert, A. Hansen, H. Neugebauer, S. Spicher,
     C. Bannwarth and S. Grimme, J. Chem. Phys., 2019, 150, 154122.
     DOI: 10.1063/1.5090222
   * E. Caldeweyher, J.-M. Mewes, S. Ehlert and S. Grimme, Phys. Chem. Chem. Phys.
     2020, 22, 8499-8512. DOI: 10.1039/D0CP00502A
   
   for sTDA-xTB:
   * S. Grimme and C. Bannwarth, J. Chem. Phys., 2016, 145, 054103.
     DOI: 10.1063/1.4959605
   
   in the mass-spec context:
   * V. Asgeirsson, C. Bauer and S. Grimme, Chem. Sci., 2017, 8, 4879.
     DOI: 10.1039/c7sc00601b
   * J. Koopman and S. Grimme, ACS Omega 2019, 4, 12, 15120-15133.
     DOI: 10.1021/acsomega.9b02011
   
   for metadynamics refer to:
   * S. Grimme, J. Chem. Theory Comput., 2019, 155, 2847-2862
     DOI: 10.1021/acs.jctc.9b00143
   
   for SPH calculations refer to:
   * S. Spicher and S. Grimme, J. Chem. Theory Comput., 2021, 17, 1701-1714
     DOI: 10.1021/acs.jctc.0c01306
   
   for ONIOM refer to:
   * C. Plett, A. Katbashev, S. Ehlert, S. Grimme, M. Bursch,
     Phys. Chem. Chem. Phys., 2023, 25, 17860-17868. DOI: 10.1039/D3CP02178E
   
   for DIPRO refer to:
   * J. Kohn, N. Gildemeister, S. Grimme, D. Fazzi, A. Hansen,
     J. Chem. Phys., 2023, just accepted.
   
   for PTB refer to:
   * S. Grimme, M. Mueller, A. Hansen, J. Chem. Phys., 2023, 158, 124111.
     DOI: 10.1063/5.0137838
   
   with help from (in alphabetical order)
   P. Atkinson, C. Bannwarth, F. Bohle, G. Brandenburg, E. Caldeweyher
   M. Checinski, S. Dohm, S. Ehlert, S. Ehrlich, I. Gerasimov, C. Hölzer
   A. Katbashev, J. Kohn, J. Koopman, C. Lavigne, S. Lehtola, F. März, M. Müller,
   F. Musil, H. Neugebauer, J. Pisarek, C. Plett, P. Pracht, F. Pultar,
   J. Seibert, P. Shushkov, S. Spicher, M. Stahn, M. Steiner, T. Strunk,
   J. Stückrath, T. Rose, and J. Unsleber
   
 * started run on 2026/01/15 at 09:37:14.075     
   ID    Z sym.   atoms
    1    6 C      1-4, 6-11, 23, 27-30, 32, 34, 38, 40-42, 45-47
    2    7 N      5, 12, 24
    3    1 H      13-21, 25, 26, 35-37, 39, 43, 44, 48, 49
    4   28 Ni     22
    5    8 O      31, 33

           -------------------------------------------------
          |                Calculation Setup                |
           -------------------------------------------------

          program call               : xtb isomer1_embed_6.xyz --sp
          coordinate file            : isomer1_embed_6.xyz
          omp threads                :                    16


           -------------------------------------------------
          |                 G F N 2 - x T B                 |
           -------------------------------------------------

        Reference                      10.1021/acs.jctc.8b01176
      * Hamiltonian:
        H0-scaling (s, p, d)           1.850000    2.230000    2.230000
        zeta-weighting                 0.500000
      * Dispersion:
        s8                             2.700000
        a1                             0.520000
        a2                             5.000000
        s9                             5.000000
      * Repulsion:
        kExp                           1.500000    1.000000
        rExp                           1.000000
      * Coulomb:
        alpha                          2.000000
        third order                    shell-resolved
        anisotropic                    true
        a3                             3.000000
        a5                             4.000000
        cn-shift                       1.200000
        cn-exp                         4.000000
        max-rad                        5.000000

q/qsh data taken from xtbrestart
CAMM data taken from xtbrestart

          ...................................................
          :                      SETUP                      :
          :.................................................:
          :  # basis functions                 145          :
          :  # atomic orbitals                 144          :
          :  # shells                           80          :
          :  # electrons                       152          :
          :  max. iterations                   250          :
          :  Hamiltonian                  GFN2-xTB          :
          :  restarted?                       true          :
          :  GBSA solvation                  false          :
          :  PC potential                    false          :
          :  electronic temp.          300.0000000     K    :
          :  accuracy                    1.0000000          :
          :  -> integral cutoff          0.2500000E+02      :
          :  -> integral neglect         0.1000000E-07      :
          :  -> SCF convergence          0.1000000E-05 Eh   :
          :  -> wf. convergence          0.1000000E-03 e    :
          :  Broyden damping             0.4000000          :
          :  net charge                          0          :
          :  unpaired electrons                  0          :
          ...................................................

 iter      E             dE          RMSdq      gap      omega  full diag
   1    -84.0509727 -0.840510E+02  0.689E+00    0.55       0.0  T
   2    -84.0725649 -0.215921E-01  0.417E+00    0.37       1.0  T
   3    -83.9550906  0.117474E+00  0.144E+00    1.38       1.0  T
   4    -84.0839633 -0.128873E+00  0.585E-01    0.49       1.0  T
   5    -84.0882892 -0.432596E-02  0.354E-01    0.47       1.0  T
   6    -84.0866097  0.167957E-02  0.242E-01    0.37       1.0  T
   7    -84.0886780 -0.206831E-02  0.125E-01    0.50       1.0  T
   8    -84.0889678 -0.289806E-03  0.625E-02    0.47       1.0  T
   9    -84.0889784 -0.106033E-04  0.436E-02    0.46       1.0  T
  10    -84.0890008 -0.224325E-04  0.206E-02    0.46       1.0  T
  11    -84.0890046 -0.381811E-05  0.106E-02    0.46       1.4  T
  12    -84.0890053 -0.710634E-06  0.575E-03    0.46       2.5  T
  13    -84.0890059 -0.596780E-06  0.258E-03    0.46       5.5  T
  14    -84.0890060 -0.103343E-06  0.117E-03    0.46      12.2  T
  15    -84.0890061 -0.107995E-07  0.680E-04    0.46      21.0  T
  16    -84.0890061 -0.815848E-08  0.272E-04    0.46      52.5  T

   *** convergence criteria satisfied after 16 iterations ***

         #    Occupation            Energy/Eh            Energy/eV
      -------------------------------------------------------------
         1        2.0000           -0.7078453             -19.2615
       ...           ...                  ...                  ...
        70        2.0000           -0.3897725             -10.6062
        71        2.0000           -0.3726709             -10.1409
        72        2.0000           -0.3661090              -9.9623
        73        2.0000           -0.3629546              -9.8765
        74        2.0000           -0.3592539              -9.7758
        75        2.0000           -0.3584566              -9.7541
        76        1.9997           -0.3278034              -8.9200 (HOMO)
        77        0.0003           -0.3108628              -8.4590 (LUMO)
        78                         -0.2855209              -7.7694
        79                         -0.2785240              -7.5790
        80                         -0.2566996              -6.9852
        81                         -0.2391403              -6.5073
       ...                                ...                  ...
       144                          1.7300411              47.0768
      -------------------------------------------------------------
                  HL-Gap            0.0169406 Eh            0.4610 eV
             Fermi-level           -0.3193331 Eh           -8.6895 eV

 SCC (total)                   0 d,  0 h,  0 min,  0.167 sec
 SCC setup                      ...        0 min,  0.000 sec (  0.252%)
 Dispersion                     ...        0 min,  0.001 sec (  0.550%)
 classical contributions        ...        0 min,  0.000 sec (  0.059%)
 integral evaluation            ...        0 min,  0.005 sec (  3.105%)
 iterations                     ...        0 min,  0.154 sec ( 91.793%)
 molecular gradient             ...        0 min,  0.007 sec (  3.959%)
 printout                       ...        0 min,  0.000 sec (  0.256%)

         :::::::::::::::::::::::::::::::::::::::::::::::::::::
         ::                     SUMMARY                     ::
         :::::::::::::::::::::::::::::::::::::::::::::::::::::
         :: total energy             -82.817785351392 Eh    ::
         :: gradient norm              0.044572339836 Eh/a0 ::
         :: HOMO-LUMO gap              0.460977597558 eV    ::
         ::.................................................::
         :: SCC energy               -84.087588823654 Eh    ::
         :: -> isotropic ES            0.094662914366 Eh    ::
         :: -> anisotropic ES         -0.000897977054 Eh    ::
         :: -> anisotropic XC          0.038010136481 Eh    ::
         :: -> dispersion             -0.070546339111 Eh    ::
         :: repulsion energy           1.269803472262 Eh    ::
         :: add. restraining           0.000000000000 Eh    ::
         :: total charge              -0.000000000000 e     ::
         :::::::::::::::::::::::::::::::::::::::::::::::::::::

           -------------------------------------------------
          |                Property Printout                |
           -------------------------------------------------

    * Orbital Energies and Occupations

         #    Occupation            Energy/Eh            Energy/eV
      -------------------------------------------------------------
         1        2.0000           -0.7078453             -19.2615
       ...           ...                  ...                  ...
        64        2.0000           -0.4138422             -11.2612
        65        2.0000           -0.4112930             -11.1919
        66        2.0000           -0.4077362             -11.0951
        67        2.0000           -0.4042818             -11.0011
        68        2.0000           -0.3994883             -10.8706
        69        2.0000           -0.3924704             -10.6797
        70        2.0000           -0.3897725             -10.6062
        71        2.0000           -0.3726709             -10.1409
        72        2.0000           -0.3661090              -9.9623
        73        2.0000           -0.3629546              -9.8765
        74        2.0000           -0.3592539              -9.7758
        75        2.0000           -0.3584566              -9.7541
        76        1.9997           -0.3278034              -8.9200 (HOMO)
        77        0.0003           -0.3108628              -8.4590 (LUMO)
        78                         -0.2855209              -7.7694
        79                         -0.2785240              -7.5790
        80                         -0.2566996              -6.9852
        81                         -0.2391403              -6.5073
        82                         -0.2213994              -6.0246
        83                         -0.2106770              -5.7328
        84                         -0.2083800              -5.6703
        85                         -0.1995409              -5.4298
        86                         -0.1617376              -4.4011
        87                         -0.1579260              -4.2974
       ...                                ...                  ...
       144                          1.7300411              47.0768
      -------------------------------------------------------------
                  HL-Gap            0.0169406 Eh            0.4610 eV
             Fermi-level           -0.3193331 Eh           -8.6895 eV

     #   Z          covCN         q      C6AA      α(0)
     1   6 C        2.917    -0.032    28.809     8.802
     2   6 C        2.923    -0.010    28.262     8.718
     3   6 C        2.918    -0.039    28.970     8.826
     4   6 C        3.044     0.084    26.087     8.377
     5   7 N        2.640    -0.019    21.635     6.908
     6   6 C        2.893     0.046    26.960     8.513
     7   6 C        3.068     0.085    26.050     8.369
     8   6 C        2.915    -0.037    28.908     8.817
     9   6 C        2.925    -0.009    28.251     8.716
    10   6 C        2.914    -0.029    28.716     8.787
    11   6 C        2.890     0.063    26.591     8.454
    12   7 N        2.644    -0.013    21.524     6.890
    13   1 H        0.926     0.058     2.224     2.332
    14   1 H        0.926     0.054     2.269     2.356
    15   1 H        0.926     0.052     2.300     2.372
    16   1 H        0.926     0.084     1.935     2.176
    17   1 H        0.926     0.045     2.380     2.412
    18   1 H        0.926     0.050     2.326     2.385
    19   1 H        0.926     0.056     2.245     2.343
    20   1 H        0.925     0.095     1.827     2.114
    21   1 H        0.924     0.080     1.977     2.199
    22  28 Ni       3.485    -0.340   190.415    28.472
    23   6 C        3.713     0.063    19.652     6.334
    24   7 N        2.769    -0.166    24.582     7.364
    25   1 H        0.921     0.081     1.969     2.195
    26   1 H        0.925     0.028     2.609     2.526
    27   6 C        2.966     0.016    27.660     8.627
    28   6 C        2.733     0.433    19.732     7.273
    29   6 C        2.921    -0.038    28.943     8.822
    30   6 C        2.941     0.087    26.057     8.372
    31   8 O        1.587    -0.343    19.811     6.007
    32   6 C        2.920    -0.029    28.714     8.787
    33   8 O        0.856    -0.439    22.467     6.355
    34   6 C        2.922    -0.042    29.053     8.839
    35   1 H        0.926     0.057     2.237     2.339
    36   1 H        0.926     0.034     2.524     2.485
    37   1 H        0.926     0.045     2.378     2.411
    38   6 C        2.927    -0.040    28.986     8.829
    39   1 H        0.926     0.026     2.639     2.540
    40   6 C        2.918    -0.031    28.768     8.796
    41   6 C        2.917    -0.033    28.826     8.804
    42   6 C        2.918    -0.033    28.830     8.805
    43   1 H        0.926     0.032     2.563     2.503
    44   1 H        0.926     0.028     2.614     2.528
    45   6 C        2.919    -0.036    28.900     8.816
    46   6 C        2.920    -0.039    28.981     8.828
    47   6 C        2.920    -0.040    28.989     8.829
    48   1 H        0.926     0.025     2.652     2.547
    49   1 H        0.926     0.028     2.610     2.526

 Mol. C6AA /au·bohr⁶  :      36611.665866
 Mol. C8AA /au·bohr⁸  :    1015007.465683
 Mol. α(0) /au        :        312.424877


Wiberg/Mayer (AO) data.
largest (>0.10) Wiberg bond orders for each atom

 ---------------------------------------------------------------------------
     #   Z sym  total        # sym  WBO       # sym  WBO       # sym  WBO
 ---------------------------------------------------------------------------
     1   6 C    3.977 --     6 C    1.431     2 C    1.420    13 H    0.968
     2   6 C    3.981 --     3 C    1.444     1 C    1.420    14 H    0.968
     3   6 C    3.988 --     2 C    1.444     4 C    1.388    15 H    0.963
     4   6 C    3.978 --     3 C    1.388     5 N    1.290     7 C    1.055
     5   7 N    3.539 --     6 C    1.385     4 C    1.290    22 Ni   0.581
     6   6 C    3.972 --     1 C    1.431     5 N    1.385    16 H    0.942
     7   6 C    3.979 --     8 C    1.384    12 N    1.289     4 C    1.055
     8   6 C    3.990 --     9 C    1.444     7 C    1.384    17 H    0.965
                            11 C    0.102
     9   6 C    3.975 --     8 C    1.444    10 C    1.426    18 H    0.969
    10   6 C    3.976 --     9 C    1.426    11 C    1.423    19 H    0.969
    11   6 C    3.969 --    10 C    1.423    12 N    1.395    20 H    0.946
                             8 C    0.102
    12   7 N    3.474 --    11 C    1.395     7 C    1.289    22 Ni   0.520
    13   1 H    0.996 --     1 C    0.968
    14   1 H    0.996 --     2 C    0.968
    15   1 H    0.997 --     3 C    0.963
    16   1 H    0.992 --     6 C    0.942
    17   1 H    0.997 --     8 C    0.965
    18   1 H    0.997 --     9 C    0.969
    19   1 H    0.996 --    10 C    0.969
    20   1 H    0.990 --    11 C    0.946
    21   1 H    0.993 --    47 C    0.867
    22  28 Ni   3.426 --    23 C    0.784    31 O    0.611     5 N    0.581
                            12 N    0.520    24 N    0.132
    23   6 C    3.947 --    27 C    1.046    24 N    1.028    25 H    0.867
                            22 Ni   0.784
    24   7 N    3.348 --    30 C    1.032    23 C    1.028    28 C    0.839
                            22 Ni   0.132
    25   1 H    0.993 --    23 C    0.867
    26   1 H    0.999 --    38 C    0.963
    27   6 C    3.987 --    29 C    1.370    38 C    1.348    23 C    1.046
    28   6 C    3.938 --    33 O    1.684    31 O    1.320    24 N    0.839
    29   6 C    3.984 --    40 C    1.448    27 C    1.370    37 H    0.960
                            41 C    0.101
    30   6 C    3.970 --    34 C    1.368    47 C    1.360    24 N    1.032
    31   8 O    2.320 --    28 C    1.320    22 Ni   0.611    33 O    0.183
    32   6 C    3.991 --    34 C    1.456    46 C    1.430    36 H    0.971
                            47 C    0.105
    33   8 O    2.019 --    28 C    1.684    31 O    0.183
    34   6 C    3.984 --    32 C    1.456    30 C    1.368    35 H    0.967
                            42 C    0.107
    35   1 H    0.997 --    34 C    0.967
    36   1 H    0.998 --    32 C    0.971
    37   1 H    0.998 --    29 C    0.960
    38   6 C    3.989 --    41 C    1.472    27 C    1.348    26 H    0.963
                            40 C    0.105
    39   1 H    0.999 --    41 C    0.971
    40   6 C    3.992 --    29 C    1.448    45 C    1.437    43 H    0.971
                            38 C    0.105
    41   6 C    3.992 --    38 C    1.472    45 C    1.417    39 H    0.971
                            29 C    0.101
    42   6 C    3.992 --    47 C    1.455    46 C    1.429    48 H    0.971
                            34 C    0.107
    43   1 H    0.998 --    40 C    0.971
    44   1 H    0.999 --    46 C    0.972
    45   6 C    3.959 --    40 C    1.437    41 C    1.417    49 H    0.972
    46   6 C    3.979 --    32 C    1.430    42 C    1.429    44 H    0.972
    47   6 C    3.986 --    42 C    1.455    30 C    1.360    21 H    0.867
                            32 C    0.105
    48   1 H    0.999 --    42 C    0.971
    49   1 H    0.999 --    45 C    0.972
 ---------------------------------------------------------------------------

Topologies differ in total number of bonds
Writing topology from bond orders to xtbtopo.mol

molecular dipole:
                 x           y           z       tot (Debye)
 q only:       -1.693      -0.304      -3.694
   full:       -1.697      -0.958      -4.433      12.309
molecular quadrupole (traceless):
                xx          xy          yy          xz          yz          zz
 q only:      -26.367      29.273      -3.592      24.681      64.803      29.959
  q+dip:      -42.622      29.114       8.983      23.993      84.332      33.639
   full:      -36.980      30.786       5.904      24.802      83.072      31.076


           -------------------------------------------------
          | TOTAL ENERGY              -82.817785351392 Eh   |
          | GRADIENT NORM               0.044572339836 Eh/α |
          | HOMO-LUMO GAP               0.460977597558 eV   |
           -------------------------------------------------

------------------------------------------------------------------------
 * finished run on 2026/01/15 at 09:37:14.264     
------------------------------------------------------------------------
 total:
 * wall-time:     0 d,  0 h,  0 min,  0.188 sec
 *  cpu-time:     0 d,  0 h,  0 min,  2.540 sec
 * ratio c/w:    13.512 speedup
 SCF:
 * wall-time:     0 d,  0 h,  0 min,  0.168 sec
 *  cpu-time:     0 d,  0 h,  0 min,  2.289 sec
 * ratio c/w:    13.662 speedup

