      -----------------------------------------------------------      
     |                   =====================                   |     
     |                           x T B                           |     
     |                   =====================                   |     
     |                         S. Grimme                         |     
     |          Mulliken Center for Theoretical Chemistry        |     
     |                    University of Bonn                     |     
      -----------------------------------------------------------      

   * xtb version 6.7.0 (08769fc) compiled by 'albert@albert-system' on 2024-03-04

   xtb is free software: you can redistribute it and/or modify it under
   the terms of the GNU Lesser General Public License as published by
   the Free Software Foundation, either version 3 of the License, or
   (at your option) any later version.
   
   xtb is distributed in the hope that it will be useful,
   but WITHOUT ANY WARRANTY; without even the implied warranty of
   MERCHANTABILITY or FITNESS FOR A PARTICULAR PURPOSE.  See the
   GNU Lesser General Public License for more details.
   
   Cite this work as:
   * C. Bannwarth, E. Caldeweyher, S. Ehlert, A. Hansen, P. Pracht,
     J. Seibert, S. Spicher, S. Grimme, WIREs Comput. Mol. Sci., 2020, 11,
     e01493. DOI: 10.1002/wcms.1493
   
   for GFN2-xTB:
   * C. Bannwarth, S. Ehlert and S. Grimme., J. Chem. Theory Comput., 2019,
     15, 1652-1671. DOI: 10.1021/acs.jctc.8b01176
   for GFN1-xTB:
   * S. Grimme, C. Bannwarth, P. Shushkov, J. Chem. Theory Comput., 2017,
     13, 1989-2009. DOI: 10.1021/acs.jctc.7b00118
   for GFN0-xTB:
   * P. Pracht, E. Caldeweyher, S. Ehlert, S. Grimme, ChemRxiv, 2019, preprint.
     DOI: 10.26434/chemrxiv.8326202.v1
   for GFN-FF:
   * S. Spicher and S. Grimme, Angew. Chem. Int. Ed., 2020, 59, 15665-15673.
     DOI: 10.1002/anie.202004239
   
   for ALPB and GBSA implicit solvation:
   * S. Ehlert, M. Stahn, S. Spicher, S. Grimme, J. Chem. Theory Comput.,
     2021, 17, 4250-4261. DOI: 10.1021/acs.jctc.1c00471
   
   for ddCOSMO and CPCM-X implicit solvation:
   * M. Stahn, S. Ehlert, S. Grimme, J. Phys. Chem. A,
     2023, XX, XXXX-XXXX. DOI: 10.1021/acs.jpca.3c04382
   
   for DFT-D4:
   * E. Caldeweyher, C. Bannwarth and S. Grimme, J. Chem. Phys., 2017,
     147, 034112. DOI: 10.1063/1.4993215
   * E. Caldeweyher, S. Ehlert, A. Hansen, H. Neugebauer, S. Spicher,
     C. Bannwarth and S. Grimme, J. Chem. Phys., 2019, 150, 154122.
     DOI: 10.1063/1.5090222
   * E. Caldeweyher, J.-M. Mewes, S. Ehlert and S. Grimme, Phys. Chem. Chem. Phys.
     2020, 22, 8499-8512. DOI: 10.1039/D0CP00502A
   
   for sTDA-xTB:
   * S. Grimme and C. Bannwarth, J. Chem. Phys., 2016, 145, 054103.
     DOI: 10.1063/1.4959605
   
   in the mass-spec context:
   * V. Asgeirsson, C. Bauer and S. Grimme, Chem. Sci., 2017, 8, 4879.
     DOI: 10.1039/c7sc00601b
   * J. Koopman and S. Grimme, ACS Omega 2019, 4, 12, 15120-15133.
     DOI: 10.1021/acsomega.9b02011
   
   for metadynamics refer to:
   * S. Grimme, J. Chem. Theory Comput., 2019, 155, 2847-2862
     DOI: 10.1021/acs.jctc.9b00143
   
   for SPH calculations refer to:
   * S. Spicher and S. Grimme, J. Chem. Theory Comput., 2021, 17, 1701-1714
     DOI: 10.1021/acs.jctc.0c01306
   
   for ONIOM refer to:
   * C. Plett, A. Katbashev, S. Ehlert, S. Grimme, M. Bursch,
     Phys. Chem. Chem. Phys., 2023, 25, 17860-17868. DOI: 10.1039/D3CP02178E
   
   for DIPRO refer to:
   * J. Kohn, N. Gildemeister, S. Grimme, D. Fazzi, A. Hansen,
     J. Chem. Phys., 2023, just accepted.
   
   for PTB refer to:
   * S. Grimme, M. Mueller, A. Hansen, J. Chem. Phys., 2023, 158, 124111.
     DOI: 10.1063/5.0137838
   
   with help from (in alphabetical order)
   P. Atkinson, C. Bannwarth, F. Bohle, G. Brandenburg, E. Caldeweyher
   M. Checinski, S. Dohm, S. Ehlert, S. Ehrlich, I. Gerasimov, C. Hölzer
   A. Katbashev, J. Kohn, J. Koopman, C. Lavigne, S. Lehtola, F. März, M. Müller,
   F. Musil, H. Neugebauer, J. Pisarek, C. Plett, P. Pracht, F. Pultar,
   J. Seibert, P. Shushkov, S. Spicher, M. Stahn, M. Steiner, T. Strunk,
   J. Stückrath, T. Rose, and J. Unsleber
   
 * started run on 2026/01/15 at 09:37:10.151     
   ID    Z sym.   atoms
    1    6 C      1-4, 6-11, 23, 27-30, 32, 34, 38, 40-42, 45-47
    2    7 N      5, 12, 24
    3    1 H      13-21, 25, 26, 35-37, 39, 43, 44, 48, 49
    4   28 Ni     22
    5    8 O      31, 33

           -------------------------------------------------
          |                Calculation Setup                |
           -------------------------------------------------

          program call               : xtb isomer1_embed_28.xyz --sp
          coordinate file            : isomer1_embed_28.xyz
          omp threads                :                    16


molecular fragmentation (1/2 indicates fragments):
1111111111111111111111111112112121111111111111111
# atoms in fragment 1/2:    46     3
 fragment masses (1/2) :      396.11       44.01
CMA distance (Bohr)    :   7.196
constraining FC (au)   :  0.0500

           -------------------------------------------------
          |                 G F N 2 - x T B                 |
           -------------------------------------------------

        Reference                      10.1021/acs.jctc.8b01176
      * Hamiltonian:
        H0-scaling (s, p, d)           1.850000    2.230000    2.230000
        zeta-weighting                 0.500000
      * Dispersion:
        s8                             2.700000
        a1                             0.520000
        a2                             5.000000
        s9                             5.000000
      * Repulsion:
        kExp                           1.500000    1.000000
        rExp                           1.000000
      * Coulomb:
        alpha                          2.000000
        third order                    shell-resolved
        anisotropic                    true
        a3                             3.000000
        a5                             4.000000
        cn-shift                       1.200000
        cn-exp                         4.000000
        max-rad                        5.000000

q/qsh data taken from xtbrestart
CAMM data taken from xtbrestart

          ...................................................
          :                      SETUP                      :
          :.................................................:
          :  # basis functions                 145          :
          :  # atomic orbitals                 144          :
          :  # shells                           80          :
          :  # electrons                       152          :
          :  max. iterations                   250          :
          :  Hamiltonian                  GFN2-xTB          :
          :  restarted?                       true          :
          :  GBSA solvation                  false          :
          :  PC potential                    false          :
          :  electronic temp.          300.0000000     K    :
          :  accuracy                    1.0000000          :
          :  -> integral cutoff          0.2500000E+02      :
          :  -> integral neglect         0.1000000E-07      :
          :  -> SCF convergence          0.1000000E-05 Eh   :
          :  -> wf. convergence          0.1000000E-03 e    :
          :  Broyden damping             0.4000000          :
          :  net charge                          0          :
          :  unpaired electrons                  0          :
          ...................................................

 iter      E             dE          RMSdq      gap      omega  full diag
   1    -84.0394215 -0.840394E+02  0.567E+00    1.47       0.0  T
   2    -84.0550160 -0.155945E-01  0.343E+00    1.60       1.0  T
   3    -83.9392431  0.115773E+00  0.142E+00    1.34       1.0  T
   4    -84.0681237 -0.128881E+00  0.483E-01    1.61       1.0  T
   5    -84.0718721 -0.374840E-02  0.302E-01    1.65       1.0  T
   6    -84.0722539 -0.381808E-03  0.176E-01    1.65       1.0  T
   7    -84.0727265 -0.472503E-03  0.102E-01    1.65       1.0  T
   8    -84.0728157 -0.892009E-04  0.668E-02    1.66       1.0  T
   9    -84.0728945 -0.788929E-04  0.290E-02    1.65       1.0  T
  10    -84.0729058 -0.112187E-04  0.138E-02    1.66       1.0  T
  11    -84.0729068 -0.100960E-05  0.682E-03    1.66       2.1  T
  12    -84.0729073 -0.492915E-06  0.360E-03    1.66       4.0  T
  13    -84.0729074 -0.142237E-06  0.138E-03    1.66      10.4  T
  14    -84.0729075 -0.455277E-07  0.786E-04    1.66      18.2  T
  15    -84.0729075 -0.461667E-08  0.392E-04    1.66      36.5  T

   *** convergence criteria satisfied after 15 iterations ***

         #    Occupation            Energy/Eh            Energy/eV
      -------------------------------------------------------------
         1        2.0000           -0.8020504             -21.8249
       ...           ...                  ...                  ...
        70        2.0000           -0.3864378             -10.5155
        71        2.0000           -0.3858931             -10.5007
        72        2.0000           -0.3726181             -10.1395
        73        2.0000           -0.3656697              -9.9504
        74        2.0000           -0.3570222              -9.7151
        75        2.0000           -0.3375380              -9.1849
        76        2.0000           -0.3219950              -8.7619 (HOMO)
        77                         -0.2610880              -7.1046 (LUMO)
        78                         -0.2590154              -7.0482
        79                         -0.2566578              -6.9840
        80                         -0.2544050              -6.9227
        81                         -0.2377848              -6.4705
       ...                                ...                  ...
       144                          1.7578947              47.8347
      -------------------------------------------------------------
                  HL-Gap            0.0609070 Eh            1.6574 eV
             Fermi-level           -0.2915415 Eh           -7.9332 eV

 SCC (total)                   0 d,  0 h,  0 min,  0.071 sec
 SCC setup                      ...        0 min,  0.000 sec (  0.598%)
 Dispersion                     ...        0 min,  0.001 sec (  1.306%)
 classical contributions        ...        0 min,  0.000 sec (  0.101%)
 integral evaluation            ...        0 min,  0.006 sec (  8.839%)
 iterations                     ...        0 min,  0.056 sec ( 78.858%)
 molecular gradient             ...        0 min,  0.007 sec (  9.513%)
 printout                       ...        0 min,  0.001 sec (  0.718%)

         :::::::::::::::::::::::::::::::::::::::::::::::::::::
         ::                     SUMMARY                     ::
         :::::::::::::::::::::::::::::::::::::::::::::::::::::
         :: total energy             -82.724839639990 Eh    ::
         :: gradient norm              0.125196958187 Eh/a0 ::
         :: HOMO-LUMO gap              1.657364744598 eV    ::
         ::.................................................::
         :: SCC energy               -84.070962116578 Eh    ::
         :: -> isotropic ES            0.060047884883 Eh    ::
         :: -> anisotropic ES          0.008873653105 Eh    ::
         :: -> anisotropic XC          0.043414745220 Eh    ::
         :: -> dispersion             -0.076010755844 Eh    ::
         :: repulsion energy           1.346122476587 Eh    ::
         :: add. restraining           0.000000000000 Eh    ::
         :: total charge               0.000000000000 e     ::
         :::::::::::::::::::::::::::::::::::::::::::::::::::::

           -------------------------------------------------
          |                Property Printout                |
           -------------------------------------------------

    * Orbital Energies and Occupations

         #    Occupation            Energy/Eh            Energy/eV
      -------------------------------------------------------------
         1        2.0000           -0.8020504             -21.8249
       ...           ...                  ...                  ...
        64        2.0000           -0.4112192             -11.1898
        65        2.0000           -0.4081042             -11.1051
        66        2.0000           -0.4021070             -10.9419
        67        2.0000           -0.4003871             -10.8951
        68        2.0000           -0.3981629             -10.8346
        69        2.0000           -0.3939331             -10.7195
        70        2.0000           -0.3864378             -10.5155
        71        2.0000           -0.3858931             -10.5007
        72        2.0000           -0.3726181             -10.1395
        73        2.0000           -0.3656697              -9.9504
        74        2.0000           -0.3570222              -9.7151
        75        2.0000           -0.3375380              -9.1849
        76        2.0000           -0.3219950              -8.7619 (HOMO)
        77                         -0.2610880              -7.1046 (LUMO)
        78                         -0.2590154              -7.0482
        79                         -0.2566578              -6.9840
        80                         -0.2544050              -6.9227
        81                         -0.2377848              -6.4705
        82                         -0.2342470              -6.3742
        83                         -0.2202317              -5.9928
        84                         -0.2162310              -5.8839
        85                         -0.2121024              -5.7716
        86                         -0.2035027              -5.5376
        87                         -0.1985626              -5.4032
       ...                                ...                  ...
       144                          1.7578947              47.8347
      -------------------------------------------------------------
                  HL-Gap            0.0609070 Eh            1.6574 eV
             Fermi-level           -0.2915415 Eh           -7.9332 eV

     #   Z          covCN         q      C6AA      α(0)
     1   6 C        2.915    -0.040    28.998     8.830
     2   6 C        2.934    -0.009    28.242     8.716
     3   6 C        2.912    -0.032    28.798     8.800
     4   6 C        2.853     0.120    25.363     8.254
     5   7 N        2.622    -0.041    22.040     6.972
     6   6 C        2.890     0.045    27.000     8.519
     7   6 C        2.848     0.116    25.438     8.266
     8   6 C        2.912    -0.035    28.862     8.809
     9   6 C        2.932    -0.009    28.239     8.715
    10   6 C        2.915    -0.040    28.996     8.830
    11   6 C        2.887     0.047    26.954     8.512
    12   7 N        2.622    -0.065    22.519     7.048
    13   1 H        0.926     0.045     2.387     2.416
    14   1 H        0.926     0.046     2.367     2.406
    15   1 H        0.926     0.051     2.312     2.378
    16   1 H        0.925     0.050     2.316     2.380
    17   1 H        0.926     0.048     2.345     2.395
    18   1 H        0.926     0.045     2.389     2.417
    19   1 H        0.926     0.043     2.413     2.429
    20   1 H        0.925     0.045     2.379     2.412
    21   1 H        0.925     0.016     2.801     2.617
    22  28 Ni       5.409    -0.561   263.085    31.342
    23   6 C        3.693     0.135    18.557     6.164
    24   7 N        2.348    -0.179    25.063     7.433
    25   1 H        0.921     0.017     2.776     2.606
    26   1 H        0.926     0.055     2.261     2.351
    27   6 C        2.976     0.014    27.692     8.632
    28   6 C        1.735     0.454    21.727     7.541
    29   6 C        2.924    -0.035    28.871     8.812
    30   6 C        2.926     0.093    25.927     8.350
    31   8 O        1.560    -0.098    15.867     5.374
    32   6 C        2.918    -0.034    28.838     8.806
    33   8 O        0.856    -0.244    18.809     5.815
    34   6 C        2.924    -0.037    28.915     8.818
    35   1 H        0.925     0.039     2.461     2.453
    36   1 H        0.925     0.022     2.710     2.575
    37   1 H        0.926     0.034     2.535     2.490
    38   6 C        2.923    -0.029    28.730     8.790
    39   1 H        0.926     0.032     2.553     2.499
    40   6 C        2.918    -0.031    28.773     8.796
    41   6 C        2.919    -0.031    28.770     8.796
    42   6 C        2.918    -0.033    28.811     8.802
    43   1 H        0.926     0.032     2.554     2.499
    44   1 H        0.926     0.019     2.755     2.595
    45   6 C        2.920    -0.033    28.813     8.802
    46   6 C        2.919    -0.043    29.080     8.843
    47   6 C        2.921    -0.054    29.342     8.883
    48   1 H        0.925     0.019     2.745     2.591
    49   1 H        0.926     0.032     2.565     2.504

 Mol. C6AA /au·bohr⁶  :      37772.201665
 Mol. C8AA /au·bohr⁸  :    1064609.409906
 Mol. α(0) /au        :        316.083266


Wiberg/Mayer (AO) data.
largest (>0.10) Wiberg bond orders for each atom

 ---------------------------------------------------------------------------
     #   Z sym  total        # sym  WBO       # sym  WBO       # sym  WBO
 ---------------------------------------------------------------------------
     1   6 C    3.987 --     2 C    1.434     6 C    1.427    13 H    0.967
                             4 C    0.107
     2   6 C    3.986 --     3 C    1.435     1 C    1.434    14 H    0.965
     3   6 C    3.986 --     2 C    1.435     4 C    1.359    15 H    0.966
                             6 C    0.115
     4   6 C    3.893 --     5 N    1.413     3 C    1.359    22 Ni   0.742
                             1 C    0.107
     5   7 N    3.483 --     4 C    1.413     6 C    1.389    22 Ni   0.429
     6   6 C    3.976 --     1 C    1.427     5 N    1.389    16 H    0.962
                             3 C    0.115
     7   6 C    3.889 --    12 N    1.404     8 C    1.361    22 Ni   0.740
                            10 C    0.107
     8   6 C    3.986 --     9 C    1.435     7 C    1.361    17 H    0.966
                            11 C    0.115
     9   6 C    3.986 --    10 C    1.436     8 C    1.435    18 H    0.965
    10   6 C    3.987 --     9 C    1.436    11 C    1.426    19 H    0.967
                             7 C    0.107
    11   6 C    3.977 --    10 C    1.426    12 N    1.394    20 H    0.962
                             8 C    0.115
    12   7 N    3.459 --     7 C    1.404    11 C    1.394    22 Ni   0.413
    13   1 H    0.995 --     1 C    0.967
    14   1 H    0.993 --     2 C    0.965
    15   1 H    0.997 --     3 C    0.966
    16   1 H    0.997 --     6 C    0.962
    17   1 H    0.998 --     8 C    0.966
    18   1 H    0.993 --     9 C    0.965
    19   1 H    0.995 --    10 C    0.967
    20   1 H    0.998 --    11 C    0.962
    21   1 H    1.000 --    47 C    0.968
    22  28 Ni   4.086 --     4 C    0.742     7 C    0.740    23 C    0.453
                             5 N    0.429    12 N    0.413    24 N    0.368
                            31 O    0.346
    23   6 C    3.981 --    24 N    1.431    27 C    1.010    25 H    0.894
                            22 Ni   0.453
    24   7 N    3.236 --    23 C    1.431    30 C    1.134    22 Ni   0.368
    25   1 H    0.999 --    23 C    0.894
    26   1 H    0.997 --    38 C    0.964
    27   6 C    3.986 --    29 C    1.376    38 C    1.376    23 C    1.010
                            45 C    0.103
    28   6 C    3.934 --    33 O    1.935    31 O    1.877
    29   6 C    3.988 --    40 C    1.458    27 C    1.376    37 H    0.966
                            41 C    0.106
    30   6 C    3.979 --    47 C    1.333    34 C    1.330    24 N    1.134
    31   8 O    2.624 --    28 C    1.877    33 O    0.365    22 Ni   0.346
    32   6 C    3.992 --    34 C    1.473    46 C    1.417    36 H    0.971
    33   8 O    2.344 --    28 C    1.935    31 O    0.365
    34   6 C    3.987 --    32 C    1.473    30 C    1.330    35 H    0.958
                            42 C    0.103
    35   1 H    0.998 --    34 C    0.958
    36   1 H    0.999 --    32 C    0.971
    37   1 H    0.999 --    29 C    0.966
    38   6 C    3.987 --    41 C    1.455    27 C    1.376    26 H    0.964
                            40 C    0.105
    39   1 H    0.998 --    41 C    0.970
    40   6 C    3.992 --    29 C    1.458    45 C    1.429    43 H    0.971
                            38 C    0.105
    41   6 C    3.992 --    38 C    1.455    45 C    1.432    39 H    0.970
                            29 C    0.106
    42   6 C    3.992 --    47 C    1.458    46 C    1.431    48 H    0.971
                            34 C    0.103
    43   1 H    0.999 --    40 C    0.971
    44   1 H    1.000 --    46 C    0.972
    45   6 C    3.979 --    41 C    1.432    40 C    1.429    49 H    0.972
                            27 C    0.103
    46   6 C    3.973 --    42 C    1.431    32 C    1.417    44 H    0.972
    47   6 C    3.982 --    42 C    1.458    30 C    1.333    21 H    0.968
    48   1 H    0.999 --    42 C    0.971
    49   1 H    0.999 --    45 C    0.972
 ---------------------------------------------------------------------------

Topologies differ in total number of bonds
Writing topology from bond orders to xtbtopo.mol

molecular dipole:
                 x           y           z       tot (Debye)
 q only:        0.758       0.206       1.439
   full:        0.299       0.209       1.545       4.034
molecular quadrupole (traceless):
                xx          xy          yy          xz          yz          zz
 q only:      -11.023     -13.330     -18.493       4.014      -0.511      29.516
  q+dip:       -4.813     -16.395     -22.416       0.611       4.276      27.229
   full:       -6.880     -14.649     -20.471      -3.296      -1.956      27.351


           -------------------------------------------------
          | TOTAL ENERGY              -82.724839639990 Eh   |
          | GRADIENT NORM               0.125196958187 Eh/α |
          | HOMO-LUMO GAP               1.657364744598 eV   |
           -------------------------------------------------

------------------------------------------------------------------------
 * finished run on 2026/01/15 at 09:37:10.242     
------------------------------------------------------------------------
 total:
 * wall-time:     0 d,  0 h,  0 min,  0.090 sec
 *  cpu-time:     0 d,  0 h,  0 min,  1.342 sec
 * ratio c/w:    14.861 speedup
 SCF:
 * wall-time:     0 d,  0 h,  0 min,  0.071 sec
 *  cpu-time:     0 d,  0 h,  0 min,  1.104 sec
 * ratio c/w:    15.461 speedup

