      -----------------------------------------------------------      
     |                   =====================                   |     
     |                           x T B                           |     
     |                   =====================                   |     
     |                         S. Grimme                         |     
     |          Mulliken Center for Theoretical Chemistry        |     
     |                    University of Bonn                     |     
      -----------------------------------------------------------      

   * xtb version 6.7.0 (08769fc) compiled by 'albert@albert-system' on 2024-03-04

   xtb is free software: you can redistribute it and/or modify it under
   the terms of the GNU Lesser General Public License as published by
   the Free Software Foundation, either version 3 of the License, or
   (at your option) any later version.
   
   xtb is distributed in the hope that it will be useful,
   but WITHOUT ANY WARRANTY; without even the implied warranty of
   MERCHANTABILITY or FITNESS FOR A PARTICULAR PURPOSE.  See the
   GNU Lesser General Public License for more details.
   
   Cite this work as:
   * C. Bannwarth, E. Caldeweyher, S. Ehlert, A. Hansen, P. Pracht,
     J. Seibert, S. Spicher, S. Grimme, WIREs Comput. Mol. Sci., 2020, 11,
     e01493. DOI: 10.1002/wcms.1493
   
   for GFN2-xTB:
   * C. Bannwarth, S. Ehlert and S. Grimme., J. Chem. Theory Comput., 2019,
     15, 1652-1671. DOI: 10.1021/acs.jctc.8b01176
   for GFN1-xTB:
   * S. Grimme, C. Bannwarth, P. Shushkov, J. Chem. Theory Comput., 2017,
     13, 1989-2009. DOI: 10.1021/acs.jctc.7b00118
   for GFN0-xTB:
   * P. Pracht, E. Caldeweyher, S. Ehlert, S. Grimme, ChemRxiv, 2019, preprint.
     DOI: 10.26434/chemrxiv.8326202.v1
   for GFN-FF:
   * S. Spicher and S. Grimme, Angew. Chem. Int. Ed., 2020, 59, 15665-15673.
     DOI: 10.1002/anie.202004239
   
   for ALPB and GBSA implicit solvation:
   * S. Ehlert, M. Stahn, S. Spicher, S. Grimme, J. Chem. Theory Comput.,
     2021, 17, 4250-4261. DOI: 10.1021/acs.jctc.1c00471
   
   for ddCOSMO and CPCM-X implicit solvation:
   * M. Stahn, S. Ehlert, S. Grimme, J. Phys. Chem. A,
     2023, XX, XXXX-XXXX. DOI: 10.1021/acs.jpca.3c04382
   
   for DFT-D4:
   * E. Caldeweyher, C. Bannwarth and S. Grimme, J. Chem. Phys., 2017,
     147, 034112. DOI: 10.1063/1.4993215
   * E. Caldeweyher, S. Ehlert, A. Hansen, H. Neugebauer, S. Spicher,
     C. Bannwarth and S. Grimme, J. Chem. Phys., 2019, 150, 154122.
     DOI: 10.1063/1.5090222
   * E. Caldeweyher, J.-M. Mewes, S. Ehlert and S. Grimme, Phys. Chem. Chem. Phys.
     2020, 22, 8499-8512. DOI: 10.1039/D0CP00502A
   
   for sTDA-xTB:
   * S. Grimme and C. Bannwarth, J. Chem. Phys., 2016, 145, 054103.
     DOI: 10.1063/1.4959605
   
   in the mass-spec context:
   * V. Asgeirsson, C. Bauer and S. Grimme, Chem. Sci., 2017, 8, 4879.
     DOI: 10.1039/c7sc00601b
   * J. Koopman and S. Grimme, ACS Omega 2019, 4, 12, 15120-15133.
     DOI: 10.1021/acsomega.9b02011
   
   for metadynamics refer to:
   * S. Grimme, J. Chem. Theory Comput., 2019, 155, 2847-2862
     DOI: 10.1021/acs.jctc.9b00143
   
   for SPH calculations refer to:
   * S. Spicher and S. Grimme, J. Chem. Theory Comput., 2021, 17, 1701-1714
     DOI: 10.1021/acs.jctc.0c01306
   
   for ONIOM refer to:
   * C. Plett, A. Katbashev, S. Ehlert, S. Grimme, M. Bursch,
     Phys. Chem. Chem. Phys., 2023, 25, 17860-17868. DOI: 10.1039/D3CP02178E
   
   for DIPRO refer to:
   * J. Kohn, N. Gildemeister, S. Grimme, D. Fazzi, A. Hansen,
     J. Chem. Phys., 2023, just accepted.
   
   for PTB refer to:
   * S. Grimme, M. Mueller, A. Hansen, J. Chem. Phys., 2023, 158, 124111.
     DOI: 10.1063/5.0137838
   
   with help from (in alphabetical order)
   P. Atkinson, C. Bannwarth, F. Bohle, G. Brandenburg, E. Caldeweyher
   M. Checinski, S. Dohm, S. Ehlert, S. Ehrlich, I. Gerasimov, C. Hölzer
   A. Katbashev, J. Kohn, J. Koopman, C. Lavigne, S. Lehtola, F. März, M. Müller,
   F. Musil, H. Neugebauer, J. Pisarek, C. Plett, P. Pracht, F. Pultar,
   J. Seibert, P. Shushkov, S. Spicher, M. Stahn, M. Steiner, T. Strunk,
   J. Stückrath, T. Rose, and J. Unsleber
   
 * started run on 2026/01/15 at 09:37:08.733     
   ID    Z sym.   atoms
    1    6 C      1-4, 6-11, 23, 27-30, 32, 34, 38, 40-42, 45-47
    2    7 N      5, 12, 24
    3    1 H      13-21, 25, 26, 35-37, 39, 43, 44, 48, 49
    4   28 Ni     22
    5    8 O      31, 33

           -------------------------------------------------
          |                Calculation Setup                |
           -------------------------------------------------

          program call               : xtb isomer1_embed_16.xyz --sp
          coordinate file            : isomer1_embed_16.xyz
          omp threads                :                    16


           -------------------------------------------------
          |                 G F N 2 - x T B                 |
           -------------------------------------------------

        Reference                      10.1021/acs.jctc.8b01176
      * Hamiltonian:
        H0-scaling (s, p, d)           1.850000    2.230000    2.230000
        zeta-weighting                 0.500000
      * Dispersion:
        s8                             2.700000
        a1                             0.520000
        a2                             5.000000
        s9                             5.000000
      * Repulsion:
        kExp                           1.500000    1.000000
        rExp                           1.000000
      * Coulomb:
        alpha                          2.000000
        third order                    shell-resolved
        anisotropic                    true
        a3                             3.000000
        a5                             4.000000
        cn-shift                       1.200000
        cn-exp                         4.000000
        max-rad                        5.000000

q/qsh data taken from xtbrestart
CAMM data taken from xtbrestart

          ...................................................
          :                      SETUP                      :
          :.................................................:
          :  # basis functions                 145          :
          :  # atomic orbitals                 144          :
          :  # shells                           80          :
          :  # electrons                       152          :
          :  max. iterations                   250          :
          :  Hamiltonian                  GFN2-xTB          :
          :  restarted?                       true          :
          :  GBSA solvation                  false          :
          :  PC potential                    false          :
          :  electronic temp.          300.0000000     K    :
          :  accuracy                    1.0000000          :
          :  -> integral cutoff          0.2500000E+02      :
          :  -> integral neglect         0.1000000E-07      :
          :  -> SCF convergence          0.1000000E-05 Eh   :
          :  -> wf. convergence          0.1000000E-03 e    :
          :  Broyden damping             0.4000000          :
          :  net charge                          0          :
          :  unpaired electrons                  0          :
          ...................................................

 iter      E             dE          RMSdq      gap      omega  full diag
   1    -84.0714160 -0.840714E+02  0.697E+00    0.96       0.0  T
   2    -84.0900357 -0.186196E-01  0.426E+00    0.68       1.0  T
   3    -84.0172980  0.727376E-01  0.127E+00    0.68       1.0  T
   4    -84.1009338 -0.836358E-01  0.457E-01    0.47       1.0  T
   5    -84.1040100 -0.307615E-02  0.259E-01    0.62       1.0  T
   6    -84.1041943 -0.184366E-03  0.174E-01    0.53       1.0  T
   7    -84.1047377 -0.543348E-03  0.856E-02    0.59       1.0  T
   8    -84.1048102 -0.725650E-04  0.594E-02    0.57       1.0  T
   9    -84.1048546 -0.444007E-04  0.238E-02    0.59       1.0  T
  10    -84.1048595 -0.487697E-05  0.138E-02    0.58       1.0  T
  11    -84.1048609 -0.136022E-05  0.769E-03    0.59       1.9  T
  12    -84.1048614 -0.548528E-06  0.302E-03    0.59       4.7  T
  13    -84.1048616 -0.132464E-06  0.179E-03    0.59       8.0  T
  14    -84.1048616 -0.255677E-07  0.986E-04    0.59      14.5  T
  15    -84.1048616 -0.734222E-08  0.426E-04    0.59      33.5  T

   *** convergence criteria satisfied after 15 iterations ***

         #    Occupation            Energy/Eh            Energy/eV
      -------------------------------------------------------------
         1        2.0000           -0.7124229             -19.3860
       ...           ...                  ...                  ...
        70        2.0000           -0.3779047             -10.2833
        71        2.0000           -0.3742156             -10.1829
        72        2.0000           -0.3737146             -10.1693
        73        2.0000           -0.3643941              -9.9157
        74        2.0000           -0.3608809              -9.8201
        75        2.0000           -0.3539903              -9.6326
        76        2.0000           -0.3396490              -9.2423 (HOMO)
        77        0.0000           -0.3180580              -8.6548 (LUMO)
        78                         -0.2879654              -7.8359
        79                         -0.2823543              -7.6833
        80                         -0.2556084              -6.9555
        81                         -0.2422017              -6.5906
       ...                                ...                  ...
       144                          1.5469413              42.0944
      -------------------------------------------------------------
                  HL-Gap            0.0215910 Eh            0.5875 eV
             Fermi-level           -0.3288535 Eh           -8.9486 eV

 SCC (total)                   0 d,  0 h,  0 min,  0.111 sec
 SCC setup                      ...        0 min,  0.000 sec (  0.420%)
 Dispersion                     ...        0 min,  0.001 sec (  0.781%)
 classical contributions        ...        0 min,  0.000 sec (  0.067%)
 integral evaluation            ...        0 min,  0.005 sec (  4.613%)
 iterations                     ...        0 min,  0.097 sec ( 87.477%)
 molecular gradient             ...        0 min,  0.007 sec (  6.155%)
 printout                       ...        0 min,  0.000 sec (  0.442%)

         :::::::::::::::::::::::::::::::::::::::::::::::::::::
         ::                     SUMMARY                     ::
         :::::::::::::::::::::::::::::::::::::::::::::::::::::
         :: total energy             -82.831473223692 Eh    ::
         :: gradient norm              0.024552655898 Eh/a0 ::
         :: HOMO-LUMO gap              0.587521920755 eV    ::
         ::.................................................::
         :: SCC energy               -84.103667103552 Eh    ::
         :: -> isotropic ES            0.095418020750 Eh    ::
         :: -> anisotropic ES          0.001652902219 Eh    ::
         :: -> anisotropic XC          0.035501329041 Eh    ::
         :: -> dispersion             -0.068170978542 Eh    ::
         :: repulsion energy           1.272193879859 Eh    ::
         :: add. restraining           0.000000000000 Eh    ::
         :: total charge               0.000000000006 e     ::
         :::::::::::::::::::::::::::::::::::::::::::::::::::::

           -------------------------------------------------
          |                Property Printout                |
           -------------------------------------------------

    * Orbital Energies and Occupations

         #    Occupation            Energy/Eh            Energy/eV
      -------------------------------------------------------------
         1        2.0000           -0.7124229             -19.3860
       ...           ...                  ...                  ...
        64        2.0000           -0.4059323             -11.0460
        65        2.0000           -0.4041056             -10.9963
        66        2.0000           -0.4033589             -10.9760
        67        2.0000           -0.4012620             -10.9189
        68        2.0000           -0.3911242             -10.6430
        69        2.0000           -0.3783317             -10.2949
        70        2.0000           -0.3779047             -10.2833
        71        2.0000           -0.3742156             -10.1829
        72        2.0000           -0.3737146             -10.1693
        73        2.0000           -0.3643941              -9.9157
        74        2.0000           -0.3608809              -9.8201
        75        2.0000           -0.3539903              -9.6326
        76        2.0000           -0.3396490              -9.2423 (HOMO)
        77        0.0000           -0.3180580              -8.6548 (LUMO)
        78                         -0.2879654              -7.8359
        79                         -0.2823543              -7.6833
        80                         -0.2556084              -6.9555
        81                         -0.2422017              -6.5906
        82                         -0.2199926              -5.9863
        83                         -0.2102940              -5.7224
        84                         -0.1954392              -5.3182
        85                         -0.1943711              -5.2891
        86                         -0.1646173              -4.4795
        87                         -0.1322046              -3.5975
       ...                                ...                  ...
       144                          1.5469413              42.0944
      -------------------------------------------------------------
                  HL-Gap            0.0215910 Eh            0.5875 eV
             Fermi-level           -0.3288535 Eh           -8.9486 eV

     #   Z          covCN         q      C6AA      α(0)
     1   6 C        2.917    -0.031    28.783     8.798
     2   6 C        2.923    -0.010    28.269     8.719
     3   6 C        2.919    -0.037    28.911     8.817
     4   6 C        3.006     0.081    26.186     8.394
     5   7 N        2.639    -0.017    21.592     6.901
     6   6 C        2.896     0.046    26.974     8.515
     7   6 C        2.993     0.078    26.244     8.403
     8   6 C        2.916    -0.036    28.906     8.816
     9   6 C        2.924    -0.008    28.226     8.713
    10   6 C        2.915    -0.029    28.720     8.788
    11   6 C        2.890     0.057    26.710     8.473
    12   7 N        2.646     0.004    21.204     6.839
    13   1 H        0.926     0.060     2.199     2.319
    14   1 H        0.926     0.056     2.250     2.346
    15   1 H        0.926     0.053     2.278     2.360
    16   1 H        0.926     0.088     1.902     2.156
    17   1 H        0.926     0.049     2.337     2.391
    18   1 H        0.926     0.053     2.284     2.363
    19   1 H        0.926     0.060     2.193     2.316
    20   1 H        0.925     0.116     1.643     2.004
    21   1 H        0.926     0.025     2.663     2.552
    22  28 Ni       3.353    -0.283   189.191    28.381
    23   6 C        3.693     0.041    20.049     6.407
    24   7 N        2.753    -0.124    23.690     7.229
    25   1 H        0.921     0.054     2.267     2.354
    26   1 H        0.925     0.027     2.637     2.539
    27   6 C        2.983     0.023    27.484     8.600
    28   6 C        2.671     0.414    20.021     7.322
    29   6 C        2.925    -0.024    28.599     8.770
    30   6 C        2.910     0.074    26.350     8.417
    31   8 O        1.600    -0.328    19.536     5.965
    32   6 C        2.920    -0.029    28.735     8.791
    33   8 O        0.857    -0.475    23.235     6.463
    34   6 C        2.924    -0.044    29.100     8.846
    35   1 H        0.926     0.059     2.209     2.324
    36   1 H        0.926     0.029     2.598     2.521
    37   1 H        0.925     0.059     2.209     2.324
    38   6 C        2.922    -0.041    29.009     8.832
    39   1 H        0.926     0.029     2.600     2.522
    40   6 C        2.918    -0.031    28.769     8.796
    41   6 C        2.918    -0.032    28.804     8.801
    42   6 C        2.920    -0.033    28.829     8.805
    43   1 H        0.926     0.031     2.572     2.508
    44   1 H        0.926     0.023     2.690     2.565
    45   6 C        2.920    -0.034    28.847     8.808
    46   6 C        2.919    -0.041    29.029     8.835
    47   6 C        2.923    -0.052    29.299     8.877
    48   1 H        0.926     0.022     2.700     2.570
    49   1 H        0.926     0.029     2.600     2.522

 Mol. C6AA /au·bohr⁶  :      36676.935215
 Mol. C8AA /au·bohr⁸  :    1015957.435412
 Mol. α(0) /au        :        312.675937


Wiberg/Mayer (AO) data.
largest (>0.10) Wiberg bond orders for each atom

 ---------------------------------------------------------------------------
     #   Z sym  total        # sym  WBO       # sym  WBO       # sym  WBO
 ---------------------------------------------------------------------------
     1   6 C    3.978 --     6 C    1.435     2 C    1.417    13 H    0.968
     2   6 C    3.980 --     3 C    1.446     1 C    1.417    14 H    0.968
     3   6 C    3.989 --     2 C    1.446     4 C    1.388    15 H    0.962
     4   6 C    3.978 --     3 C    1.388     5 N    1.288     7 C    1.060
     5   7 N    3.542 --     6 C    1.384     4 C    1.288    22 Ni   0.605
     6   6 C    3.972 --     1 C    1.435     5 N    1.384    16 H    0.939
     7   6 C    3.979 --     8 C    1.380    12 N    1.306     4 C    1.060
     8   6 C    3.989 --     9 C    1.447     7 C    1.380    17 H    0.963
                            11 C    0.101
     9   6 C    3.986 --     8 C    1.447    10 C    1.427    18 H    0.969
    10   6 C    3.977 --     9 C    1.427    11 C    1.420    19 H    0.968
    11   6 C    3.965 --    10 C    1.420    12 N    1.401    20 H    0.937
                             8 C    0.101
    12   7 N    3.531 --    11 C    1.401     7 C    1.306    22 Ni   0.557
    13   1 H    0.996 --     1 C    0.968
    14   1 H    0.996 --     2 C    0.968
    15   1 H    0.997 --     3 C    0.962
    16   1 H    0.992 --     6 C    0.939
    17   1 H    0.997 --     8 C    0.963
    18   1 H    0.996 --     9 C    0.969
    19   1 H    0.996 --    10 C    0.968
    20   1 H    0.986 --    11 C    0.937
    21   1 H    0.999 --    47 C    0.965
    22  28 Ni   3.532 --    23 C    0.859    31 O    0.783     5 N    0.605
                            12 N    0.557
    23   6 C    3.931 --    27 C    0.993    24 N    0.941    25 H    0.885
                            22 Ni   0.859
    24   7 N    3.476 --    28 C    1.078    30 C    1.074    23 C    0.941
                            33 O    0.126
    25   1 H    0.995 --    23 C    0.885
    26   1 H    0.999 --    38 C    0.964
    27   6 C    3.988 --    38 C    1.385    29 C    1.367    23 C    0.993
                            45 C    0.104
    28   6 C    3.943 --    33 O    1.604    31 O    1.174    24 N    1.078
    29   6 C    3.992 --    40 C    1.460    27 C    1.367    37 H    0.939
                            41 C    0.108
    30   6 C    3.966 --    47 C    1.366    34 C    1.361    24 N    1.074
    31   8 O    2.349 --    28 C    1.174    22 Ni   0.783    33 O    0.136
    32   6 C    3.991 --    34 C    1.460    46 C    1.427    36 H    0.971
                            47 C    0.104
    33   8 O    1.970 --    28 C    1.604    31 O    0.136    24 N    0.126
    34   6 C    3.985 --    32 C    1.460    30 C    1.361    35 H    0.965
                            42 C    0.107
    35   1 H    0.996 --    34 C    0.965
    36   1 H    0.999 --    32 C    0.971
    37   1 H    0.996 --    29 C    0.939
    38   6 C    3.986 --    41 C    1.442    27 C    1.385    26 H    0.964
                            40 C    0.105
    39   1 H    0.998 --    41 C    0.971
    40   6 C    3.992 --    29 C    1.460    45 C    1.425    43 H    0.971
                            38 C    0.105
    41   6 C    3.991 --    38 C    1.442    45 C    1.440    39 H    0.971
                            29 C    0.108
    42   6 C    3.992 --    47 C    1.453    46 C    1.433    48 H    0.971
                            34 C    0.107
    43   1 H    0.999 --    40 C    0.971
    44   1 H    0.999 --    46 C    0.972
    45   6 C    3.987 --    41 C    1.440    40 C    1.425    49 H    0.972
                            27 C    0.104
    46   6 C    3.986 --    42 C    1.433    32 C    1.427    44 H    0.972
    47   6 C    3.986 --    42 C    1.453    30 C    1.366    21 H    0.965
                            32 C    0.104
    48   1 H    0.999 --    42 C    0.971
    49   1 H    0.999 --    45 C    0.972
 ---------------------------------------------------------------------------

Topologies differ in total number of bonds
Writing topology from bond orders to xtbtopo.mol

molecular dipole:
                 x           y           z       tot (Debye)
 q only:        3.778       2.794      -0.672
   full:        4.247       3.366      -0.802      13.924
molecular quadrupole (traceless):
                xx          xy          yy          xz          yz          zz
 q only:      -33.022      72.961      78.994      -4.743     -25.667     -45.972
  q+dip:      -40.471      80.719      96.806      -3.074     -34.297     -56.335
   full:      -42.851      82.996      94.509      -5.271     -30.685     -51.658


           -------------------------------------------------
          | TOTAL ENERGY              -82.831473223692 Eh   |
          | GRADIENT NORM               0.024552655898 Eh/α |
          | HOMO-LUMO GAP               0.587521920755 eV   |
           -------------------------------------------------

------------------------------------------------------------------------
 * finished run on 2026/01/15 at 09:37:08.864     
------------------------------------------------------------------------
 total:
 * wall-time:     0 d,  0 h,  0 min,  0.130 sec
 *  cpu-time:     0 d,  0 h,  0 min,  1.886 sec
 * ratio c/w:    14.461 speedup
 SCF:
 * wall-time:     0 d,  0 h,  0 min,  0.111 sec
 *  cpu-time:     0 d,  0 h,  0 min,  1.642 sec
 * ratio c/w:    14.738 speedup

