      -----------------------------------------------------------      
     |                   =====================                   |     
     |                           x T B                           |     
     |                   =====================                   |     
     |                         S. Grimme                         |     
     |          Mulliken Center for Theoretical Chemistry        |     
     |                    University of Bonn                     |     
      -----------------------------------------------------------      

   * xtb version 6.7.0 (08769fc) compiled by 'albert@albert-system' on 2024-03-04

   xtb is free software: you can redistribute it and/or modify it under
   the terms of the GNU Lesser General Public License as published by
   the Free Software Foundation, either version 3 of the License, or
   (at your option) any later version.
   
   xtb is distributed in the hope that it will be useful,
   but WITHOUT ANY WARRANTY; without even the implied warranty of
   MERCHANTABILITY or FITNESS FOR A PARTICULAR PURPOSE.  See the
   GNU Lesser General Public License for more details.
   
   Cite this work as:
   * C. Bannwarth, E. Caldeweyher, S. Ehlert, A. Hansen, P. Pracht,
     J. Seibert, S. Spicher, S. Grimme, WIREs Comput. Mol. Sci., 2020, 11,
     e01493. DOI: 10.1002/wcms.1493
   
   for GFN2-xTB:
   * C. Bannwarth, S. Ehlert and S. Grimme., J. Chem. Theory Comput., 2019,
     15, 1652-1671. DOI: 10.1021/acs.jctc.8b01176
   for GFN1-xTB:
   * S. Grimme, C. Bannwarth, P. Shushkov, J. Chem. Theory Comput., 2017,
     13, 1989-2009. DOI: 10.1021/acs.jctc.7b00118
   for GFN0-xTB:
   * P. Pracht, E. Caldeweyher, S. Ehlert, S. Grimme, ChemRxiv, 2019, preprint.
     DOI: 10.26434/chemrxiv.8326202.v1
   for GFN-FF:
   * S. Spicher and S. Grimme, Angew. Chem. Int. Ed., 2020, 59, 15665-15673.
     DOI: 10.1002/anie.202004239
   
   for ALPB and GBSA implicit solvation:
   * S. Ehlert, M. Stahn, S. Spicher, S. Grimme, J. Chem. Theory Comput.,
     2021, 17, 4250-4261. DOI: 10.1021/acs.jctc.1c00471
   
   for ddCOSMO and CPCM-X implicit solvation:
   * M. Stahn, S. Ehlert, S. Grimme, J. Phys. Chem. A,
     2023, XX, XXXX-XXXX. DOI: 10.1021/acs.jpca.3c04382
   
   for DFT-D4:
   * E. Caldeweyher, C. Bannwarth and S. Grimme, J. Chem. Phys., 2017,
     147, 034112. DOI: 10.1063/1.4993215
   * E. Caldeweyher, S. Ehlert, A. Hansen, H. Neugebauer, S. Spicher,
     C. Bannwarth and S. Grimme, J. Chem. Phys., 2019, 150, 154122.
     DOI: 10.1063/1.5090222
   * E. Caldeweyher, J.-M. Mewes, S. Ehlert and S. Grimme, Phys. Chem. Chem. Phys.
     2020, 22, 8499-8512. DOI: 10.1039/D0CP00502A
   
   for sTDA-xTB:
   * S. Grimme and C. Bannwarth, J. Chem. Phys., 2016, 145, 054103.
     DOI: 10.1063/1.4959605
   
   in the mass-spec context:
   * V. Asgeirsson, C. Bauer and S. Grimme, Chem. Sci., 2017, 8, 4879.
     DOI: 10.1039/c7sc00601b
   * J. Koopman and S. Grimme, ACS Omega 2019, 4, 12, 15120-15133.
     DOI: 10.1021/acsomega.9b02011
   
   for metadynamics refer to:
   * S. Grimme, J. Chem. Theory Comput., 2019, 155, 2847-2862
     DOI: 10.1021/acs.jctc.9b00143
   
   for SPH calculations refer to:
   * S. Spicher and S. Grimme, J. Chem. Theory Comput., 2021, 17, 1701-1714
     DOI: 10.1021/acs.jctc.0c01306
   
   for ONIOM refer to:
   * C. Plett, A. Katbashev, S. Ehlert, S. Grimme, M. Bursch,
     Phys. Chem. Chem. Phys., 2023, 25, 17860-17868. DOI: 10.1039/D3CP02178E
   
   for DIPRO refer to:
   * J. Kohn, N. Gildemeister, S. Grimme, D. Fazzi, A. Hansen,
     J. Chem. Phys., 2023, just accepted.
   
   for PTB refer to:
   * S. Grimme, M. Mueller, A. Hansen, J. Chem. Phys., 2023, 158, 124111.
     DOI: 10.1063/5.0137838
   
   with help from (in alphabetical order)
   P. Atkinson, C. Bannwarth, F. Bohle, G. Brandenburg, E. Caldeweyher
   M. Checinski, S. Dohm, S. Ehlert, S. Ehrlich, I. Gerasimov, C. Hölzer
   A. Katbashev, J. Kohn, J. Koopman, C. Lavigne, S. Lehtola, F. März, M. Müller,
   F. Musil, H. Neugebauer, J. Pisarek, C. Plett, P. Pracht, F. Pultar,
   J. Seibert, P. Shushkov, S. Spicher, M. Stahn, M. Steiner, T. Strunk,
   J. Stückrath, T. Rose, and J. Unsleber
   
 * started run on 2026/01/15 at 09:37:12.023     
   ID    Z sym.   atoms
    1    6 C      1-4, 6-11, 23, 27-30, 32, 34, 38, 40-42, 45-47
    2    7 N      5, 12, 24
    3    1 H      13-21, 25, 26, 35-37, 39, 43, 44, 48, 49
    4   28 Ni     22
    5    8 O      31, 33

           -------------------------------------------------
          |                Calculation Setup                |
           -------------------------------------------------

          program call               : xtb isomer1_embed_42.xyz --sp
          coordinate file            : isomer1_embed_42.xyz
          omp threads                :                    16


           -------------------------------------------------
          |                 G F N 2 - x T B                 |
           -------------------------------------------------

        Reference                      10.1021/acs.jctc.8b01176
      * Hamiltonian:
        H0-scaling (s, p, d)           1.850000    2.230000    2.230000
        zeta-weighting                 0.500000
      * Dispersion:
        s8                             2.700000
        a1                             0.520000
        a2                             5.000000
        s9                             5.000000
      * Repulsion:
        kExp                           1.500000    1.000000
        rExp                           1.000000
      * Coulomb:
        alpha                          2.000000
        third order                    shell-resolved
        anisotropic                    true
        a3                             3.000000
        a5                             4.000000
        cn-shift                       1.200000
        cn-exp                         4.000000
        max-rad                        5.000000

q/qsh data taken from xtbrestart
CAMM data taken from xtbrestart

          ...................................................
          :                      SETUP                      :
          :.................................................:
          :  # basis functions                 145          :
          :  # atomic orbitals                 144          :
          :  # shells                           80          :
          :  # electrons                       152          :
          :  max. iterations                   250          :
          :  Hamiltonian                  GFN2-xTB          :
          :  restarted?                       true          :
          :  GBSA solvation                  false          :
          :  PC potential                    false          :
          :  electronic temp.          300.0000000     K    :
          :  accuracy                    1.0000000          :
          :  -> integral cutoff          0.2500000E+02      :
          :  -> integral neglect         0.1000000E-07      :
          :  -> SCF convergence          0.1000000E-05 Eh   :
          :  -> wf. convergence          0.1000000E-03 e    :
          :  Broyden damping             0.4000000          :
          :  net charge                          0          :
          :  unpaired electrons                  0          :
          ...................................................

 iter      E             dE          RMSdq      gap      omega  full diag
   1    -84.0480824 -0.840481E+02  0.682E+00    0.16       0.0  T
   2    -84.0807856 -0.327032E-01  0.436E+00    1.37       1.0  T
   3    -83.1603925  0.920393E+00  0.295E+00    0.61       1.0  T
   4    -84.0420567 -0.881664E+00  0.100E+00    1.91       1.0  T
   5    -84.0899662 -0.479095E-01  0.647E-01    1.49       1.0  T
   6    -84.0976154 -0.764918E-02  0.409E-01    1.26       1.0  T
   7    -84.1027628 -0.514744E-02  0.268E-01    0.90       1.0  T
   8    -84.1037077 -0.944844E-03  0.983E-02    0.57       1.0  T
   9    -84.1038005 -0.928322E-04  0.554E-02    0.50       1.0  T
  10    -84.1038521 -0.516122E-04  0.322E-02    0.54       1.0  T
  11    -84.1038623 -0.101949E-04  0.208E-02    0.56       1.0  T
  12    -84.1038690 -0.672229E-05  0.114E-02    0.57       1.3  T
  13    -84.1038697 -0.671690E-06  0.671E-03    0.58       2.1  T
  14    -84.1038704 -0.744690E-06  0.290E-03    0.57       4.9  T
  15    -84.1038705 -0.572568E-07  0.168E-03    0.57       8.5  T
  16    -84.1038705 -0.355767E-07  0.713E-04    0.57      20.0  T
  17    -84.1038705 -0.537403E-08  0.287E-04    0.57      49.7  T

   *** convergence criteria satisfied after 17 iterations ***

         #    Occupation            Energy/Eh            Energy/eV
      -------------------------------------------------------------
         1        2.0000           -0.7127682             -19.3954
       ...           ...                  ...                  ...
        70        2.0000           -0.3780561             -10.2874
        71        2.0000           -0.3741166             -10.1802
        72        2.0000           -0.3737786             -10.1710
        73        2.0000           -0.3644034              -9.9159
        74        2.0000           -0.3607925              -9.8177
        75        2.0000           -0.3544022              -9.6438
        76        2.0000           -0.3392578              -9.2317 (HOMO)
        77        0.0000           -0.3182257              -8.6594 (LUMO)
        78                         -0.2885073              -7.8507
        79                         -0.2829347              -7.6990
        80                         -0.2558243              -6.9613
        81                         -0.2424577              -6.5976
       ...                                ...                  ...
       144                          1.5436128              42.0038
      -------------------------------------------------------------
                  HL-Gap            0.0210321 Eh            0.5723 eV
             Fermi-level           -0.3287417 Eh           -8.9455 eV

 SCC (total)                   0 d,  0 h,  0 min,  0.070 sec
 SCC setup                      ...        0 min,  0.000 sec (  0.588%)
 Dispersion                     ...        0 min,  0.001 sec (  1.257%)
 classical contributions        ...        0 min,  0.000 sec (  0.143%)
 integral evaluation            ...        0 min,  0.006 sec (  8.142%)
 iterations                     ...        0 min,  0.055 sec ( 79.541%)
 molecular gradient             ...        0 min,  0.007 sec (  9.579%)
 printout                       ...        0 min,  0.000 sec (  0.683%)

         :::::::::::::::::::::::::::::::::::::::::::::::::::::
         ::                     SUMMARY                     ::
         :::::::::::::::::::::::::::::::::::::::::::::::::::::
         :: total energy             -82.830524380497 Eh    ::
         :: gradient norm              0.026134841753 Eh/a0 ::
         :: HOMO-LUMO gap              0.572311916802 eV    ::
         ::.................................................::
         :: SCC energy               -84.102594546309 Eh    ::
         :: -> isotropic ES            0.095817727407 Eh    ::
         :: -> anisotropic ES          0.001808591431 Eh    ::
         :: -> anisotropic XC          0.035627091925 Eh    ::
         :: -> dispersion             -0.068545122548 Eh    ::
         :: repulsion energy           1.272070165812 Eh    ::
         :: add. restraining           0.000000000000 Eh    ::
         :: total charge               0.000000000004 e     ::
         :::::::::::::::::::::::::::::::::::::::::::::::::::::

           -------------------------------------------------
          |                Property Printout                |
           -------------------------------------------------

    * Orbital Energies and Occupations

         #    Occupation            Energy/Eh            Energy/eV
      -------------------------------------------------------------
         1        2.0000           -0.7127682             -19.3954
       ...           ...                  ...                  ...
        64        2.0000           -0.4061250             -11.0512
        65        2.0000           -0.4038864             -10.9903
        66        2.0000           -0.4036779             -10.9846
        67        2.0000           -0.4017625             -10.9325
        68        2.0000           -0.3906710             -10.6307
        69        2.0000           -0.3789015             -10.3104
        70        2.0000           -0.3780561             -10.2874
        71        2.0000           -0.3741166             -10.1802
        72        2.0000           -0.3737786             -10.1710
        73        2.0000           -0.3644034              -9.9159
        74        2.0000           -0.3607925              -9.8177
        75        2.0000           -0.3544022              -9.6438
        76        2.0000           -0.3392578              -9.2317 (HOMO)
        77        0.0000           -0.3182257              -8.6594 (LUMO)
        78                         -0.2885073              -7.8507
        79                         -0.2829347              -7.6990
        80                         -0.2558243              -6.9613
        81                         -0.2424577              -6.5976
        82                         -0.2206140              -6.0032
        83                         -0.2107125              -5.7338
        84                         -0.1953462              -5.3156
        85                         -0.1942654              -5.2862
        86                         -0.1649453              -4.4884
        87                         -0.1322376              -3.5984
       ...                                ...                  ...
       144                          1.5436128              42.0038
      -------------------------------------------------------------
                  HL-Gap            0.0210321 Eh            0.5723 eV
             Fermi-level           -0.3287417 Eh           -8.9455 eV

     #   Z          covCN         q      C6AA      α(0)
     1   6 C        2.915    -0.029    28.719     8.788
     2   6 C        2.924    -0.008    28.225     8.712
     3   6 C        2.915    -0.036    28.903     8.816
     4   6 C        2.997     0.079    26.235     8.402
     5   7 N        2.647     0.002    21.230     6.843
     6   6 C        2.889     0.058    26.698     8.471
     7   6 C        3.010     0.081    26.181     8.393
     8   6 C        2.919    -0.037    28.914     8.818
     9   6 C        2.923    -0.010    28.266     8.719
    10   6 C        2.917    -0.031    28.782     8.797
    11   6 C        2.896     0.046    26.960     8.513
    12   7 N        2.639    -0.018    21.601     6.903
    13   1 H        0.926     0.061     2.192     2.315
    14   1 H        0.926     0.053     2.282     2.362
    15   1 H        0.926     0.049     2.336     2.390
    16   1 H        0.925     0.115     1.654     2.011
    17   1 H        0.926     0.054     2.275     2.359
    18   1 H        0.926     0.056     2.246     2.343
    19   1 H        0.926     0.060     2.195     2.317
    20   1 H        0.926     0.087     1.911     2.162
    21   1 H        0.926     0.058     2.223     2.332
    22  28 Ni       3.366    -0.280   189.118    28.375
    23   6 C        3.692     0.041    20.063     6.409
    24   7 N        2.754    -0.125    23.708     7.232
    25   1 H        0.922     0.055     2.263     2.353
    26   1 H        0.925     0.059     2.214     2.327
    27   6 C        2.982     0.022    27.497     8.602
    28   6 C        2.674     0.415    20.014     7.321
    29   6 C        2.922    -0.041    29.012     8.833
    30   6 C        2.910     0.074    26.345     8.416
    31   8 O        1.600    -0.329    19.560     5.969
    32   6 C        2.920    -0.033    28.829     8.805
    33   8 O        0.857    -0.474    23.223     6.461
    34   6 C        2.924    -0.052    29.296     8.876
    35   1 H        0.926     0.025     2.661     2.551
    36   1 H        0.926     0.022     2.699     2.569
    37   1 H        0.925     0.027     2.631     2.537
    38   6 C        2.925    -0.024    28.605     8.771
    39   1 H        0.926     0.031     2.574     2.509
    40   6 C        2.918    -0.032    28.805     8.801
    41   6 C        2.918    -0.031    28.773     8.796
    42   6 C        2.920    -0.029    28.735     8.791
    43   1 H        0.926     0.029     2.598     2.521
    44   1 H        0.926     0.023     2.689     2.564
    45   6 C        2.920    -0.034    28.851     8.808
    46   6 C        2.919    -0.041    29.027     8.835
    47   6 C        2.924    -0.044    29.082     8.844
    48   1 H        0.926     0.029     2.598     2.521
    49   1 H        0.926     0.029     2.599     2.521

 Mol. C6AA /au·bohr⁶  :      36678.923372
 Mol. C8AA /au·bohr⁸  :    1015967.458013
 Mol. α(0) /au        :        312.682240


Wiberg/Mayer (AO) data.
largest (>0.10) Wiberg bond orders for each atom

 ---------------------------------------------------------------------------
     #   Z sym  total        # sym  WBO       # sym  WBO       # sym  WBO
 ---------------------------------------------------------------------------
     1   6 C    3.977 --     2 C    1.427     6 C    1.421    13 H    0.968
     2   6 C    3.985 --     3 C    1.447     1 C    1.427    14 H    0.969
     3   6 C    3.989 --     2 C    1.447     4 C    1.380    15 H    0.963
                             6 C    0.102
     4   6 C    3.979 --     3 C    1.380     5 N    1.304     7 C    1.060
     5   7 N    3.528 --     6 C    1.401     4 C    1.304    22 Ni   0.556
     6   6 C    3.966 --     1 C    1.421     5 N    1.401    16 H    0.938
                             3 C    0.102
     7   6 C    3.978 --     8 C    1.387    12 N    1.287     4 C    1.060
     8   6 C    3.989 --     9 C    1.446     7 C    1.387    17 H    0.962
     9   6 C    3.980 --     8 C    1.446    10 C    1.416    18 H    0.968
    10   6 C    3.978 --    11 C    1.435     9 C    1.416    19 H    0.968
    11   6 C    3.972 --    10 C    1.435    12 N    1.383    20 H    0.940
    12   7 N    3.542 --    11 C    1.383     7 C    1.287    22 Ni   0.603
    13   1 H    0.996 --     1 C    0.968
    14   1 H    0.996 --     2 C    0.969
    15   1 H    0.997 --     3 C    0.963
    16   1 H    0.986 --     6 C    0.938
    17   1 H    0.997 --     8 C    0.962
    18   1 H    0.996 --     9 C    0.968
    19   1 H    0.996 --    10 C    0.968
    20   1 H    0.992 --    11 C    0.940
    21   1 H    0.997 --    47 C    0.965
    22  28 Ni   3.529 --    23 C    0.857    31 O    0.780    12 N    0.603
                             5 N    0.556
    23   6 C    3.932 --    27 C    0.996    24 N    0.940    25 H    0.885
                            22 Ni   0.857
    24   7 N    3.473 --    28 C    1.073    30 C    1.073    23 C    0.940
                            33 O    0.126
    25   1 H    0.995 --    23 C    0.885
    26   1 H    0.997 --    38 C    0.938
    27   6 C    3.988 --    29 C    1.385    38 C    1.368    23 C    0.996
                            45 C    0.104
    28   6 C    3.943 --    33 O    1.605    31 O    1.177    24 N    1.073
    29   6 C    3.986 --    40 C    1.443    27 C    1.385    37 H    0.964
                            41 C    0.105
    30   6 C    3.967 --    34 C    1.366    47 C    1.362    24 N    1.073
    31   8 O    2.346 --    28 C    1.177    22 Ni   0.780    33 O    0.137
    32   6 C    3.992 --    34 C    1.453    46 C    1.433    36 H    0.971
                            47 C    0.107
    33   8 O    1.970 --    28 C    1.605    31 O    0.137    24 N    0.126
    34   6 C    3.986 --    32 C    1.453    30 C    1.366    35 H    0.965
                            42 C    0.104
    35   1 H    0.999 --    34 C    0.965
    36   1 H    0.999 --    32 C    0.971
    37   1 H    0.999 --    29 C    0.964
    38   6 C    3.992 --    41 C    1.460    27 C    1.368    26 H    0.938
                            40 C    0.108
    39   1 H    0.999 --    41 C    0.971
    40   6 C    3.991 --    29 C    1.443    45 C    1.440    43 H    0.971
                            38 C    0.108
    41   6 C    3.992 --    38 C    1.460    45 C    1.424    39 H    0.971
                            29 C    0.105
    42   6 C    3.991 --    47 C    1.460    46 C    1.427    48 H    0.971
                            34 C    0.104
    43   1 H    0.998 --    40 C    0.971
    44   1 H    0.999 --    46 C    0.972
    45   6 C    3.987 --    40 C    1.440    41 C    1.424    49 H    0.972
                            27 C    0.104
    46   6 C    3.986 --    32 C    1.433    42 C    1.427    44 H    0.972
    47   6 C    3.986 --    42 C    1.460    30 C    1.362    21 H    0.965
                            32 C    0.107
    48   1 H    0.999 --    42 C    0.971
    49   1 H    0.999 --    45 C    0.972
 ---------------------------------------------------------------------------

Topologies differ in total number of bonds
Writing topology from bond orders to xtbtopo.mol

molecular dipole:
                 x           y           z       tot (Debye)
 q only:       -0.776      -2.111       4.231
   full:       -0.718      -2.416       4.908      14.024
molecular quadrupole (traceless):
                xx          xy          yy          xz          yz          zz
 q only:      -43.544     -27.431     -17.957      62.866     -47.394      61.501
  q+dip:      -43.495     -30.054     -26.110      77.985     -54.498      69.605
   full:      -49.044     -32.090     -21.226      76.288     -52.734      70.270


           -------------------------------------------------
          | TOTAL ENERGY              -82.830524380497 Eh   |
          | GRADIENT NORM               0.026134841753 Eh/α |
          | HOMO-LUMO GAP               0.572311916802 eV   |
           -------------------------------------------------

------------------------------------------------------------------------
 * finished run on 2026/01/15 at 09:37:12.108     
------------------------------------------------------------------------
 total:
 * wall-time:     0 d,  0 h,  0 min,  0.085 sec
 *  cpu-time:     0 d,  0 h,  0 min,  1.266 sec
 * ratio c/w:    14.968 speedup
 SCF:
 * wall-time:     0 d,  0 h,  0 min,  0.070 sec
 *  cpu-time:     0 d,  0 h,  0 min,  1.095 sec
 * ratio c/w:    15.634 speedup

