      -----------------------------------------------------------      
     |                   =====================                   |     
     |                           x T B                           |     
     |                   =====================                   |     
     |                         S. Grimme                         |     
     |          Mulliken Center for Theoretical Chemistry        |     
     |                    University of Bonn                     |     
      -----------------------------------------------------------      

   * xtb version 6.7.0 (08769fc) compiled by 'albert@albert-system' on 2024-03-04

   xtb is free software: you can redistribute it and/or modify it under
   the terms of the GNU Lesser General Public License as published by
   the Free Software Foundation, either version 3 of the License, or
   (at your option) any later version.
   
   xtb is distributed in the hope that it will be useful,
   but WITHOUT ANY WARRANTY; without even the implied warranty of
   MERCHANTABILITY or FITNESS FOR A PARTICULAR PURPOSE.  See the
   GNU Lesser General Public License for more details.
   
   Cite this work as:
   * C. Bannwarth, E. Caldeweyher, S. Ehlert, A. Hansen, P. Pracht,
     J. Seibert, S. Spicher, S. Grimme, WIREs Comput. Mol. Sci., 2020, 11,
     e01493. DOI: 10.1002/wcms.1493
   
   for GFN2-xTB:
   * C. Bannwarth, S. Ehlert and S. Grimme., J. Chem. Theory Comput., 2019,
     15, 1652-1671. DOI: 10.1021/acs.jctc.8b01176
   for GFN1-xTB:
   * S. Grimme, C. Bannwarth, P. Shushkov, J. Chem. Theory Comput., 2017,
     13, 1989-2009. DOI: 10.1021/acs.jctc.7b00118
   for GFN0-xTB:
   * P. Pracht, E. Caldeweyher, S. Ehlert, S. Grimme, ChemRxiv, 2019, preprint.
     DOI: 10.26434/chemrxiv.8326202.v1
   for GFN-FF:
   * S. Spicher and S. Grimme, Angew. Chem. Int. Ed., 2020, 59, 15665-15673.
     DOI: 10.1002/anie.202004239
   
   for ALPB and GBSA implicit solvation:
   * S. Ehlert, M. Stahn, S. Spicher, S. Grimme, J. Chem. Theory Comput.,
     2021, 17, 4250-4261. DOI: 10.1021/acs.jctc.1c00471
   
   for ddCOSMO and CPCM-X implicit solvation:
   * M. Stahn, S. Ehlert, S. Grimme, J. Phys. Chem. A,
     2023, XX, XXXX-XXXX. DOI: 10.1021/acs.jpca.3c04382
   
   for DFT-D4:
   * E. Caldeweyher, C. Bannwarth and S. Grimme, J. Chem. Phys., 2017,
     147, 034112. DOI: 10.1063/1.4993215
   * E. Caldeweyher, S. Ehlert, A. Hansen, H. Neugebauer, S. Spicher,
     C. Bannwarth and S. Grimme, J. Chem. Phys., 2019, 150, 154122.
     DOI: 10.1063/1.5090222
   * E. Caldeweyher, J.-M. Mewes, S. Ehlert and S. Grimme, Phys. Chem. Chem. Phys.
     2020, 22, 8499-8512. DOI: 10.1039/D0CP00502A
   
   for sTDA-xTB:
   * S. Grimme and C. Bannwarth, J. Chem. Phys., 2016, 145, 054103.
     DOI: 10.1063/1.4959605
   
   in the mass-spec context:
   * V. Asgeirsson, C. Bauer and S. Grimme, Chem. Sci., 2017, 8, 4879.
     DOI: 10.1039/c7sc00601b
   * J. Koopman and S. Grimme, ACS Omega 2019, 4, 12, 15120-15133.
     DOI: 10.1021/acsomega.9b02011
   
   for metadynamics refer to:
   * S. Grimme, J. Chem. Theory Comput., 2019, 155, 2847-2862
     DOI: 10.1021/acs.jctc.9b00143
   
   for SPH calculations refer to:
   * S. Spicher and S. Grimme, J. Chem. Theory Comput., 2021, 17, 1701-1714
     DOI: 10.1021/acs.jctc.0c01306
   
   for ONIOM refer to:
   * C. Plett, A. Katbashev, S. Ehlert, S. Grimme, M. Bursch,
     Phys. Chem. Chem. Phys., 2023, 25, 17860-17868. DOI: 10.1039/D3CP02178E
   
   for DIPRO refer to:
   * J. Kohn, N. Gildemeister, S. Grimme, D. Fazzi, A. Hansen,
     J. Chem. Phys., 2023, just accepted.
   
   for PTB refer to:
   * S. Grimme, M. Mueller, A. Hansen, J. Chem. Phys., 2023, 158, 124111.
     DOI: 10.1063/5.0137838
   
   with help from (in alphabetical order)
   P. Atkinson, C. Bannwarth, F. Bohle, G. Brandenburg, E. Caldeweyher
   M. Checinski, S. Dohm, S. Ehlert, S. Ehrlich, I. Gerasimov, C. Hölzer
   A. Katbashev, J. Kohn, J. Koopman, C. Lavigne, S. Lehtola, F. März, M. Müller,
   F. Musil, H. Neugebauer, J. Pisarek, C. Plett, P. Pracht, F. Pultar,
   J. Seibert, P. Shushkov, S. Spicher, M. Stahn, M. Steiner, T. Strunk,
   J. Stückrath, T. Rose, and J. Unsleber
   
 * started run on 2026/01/15 at 09:37:12.496     
   ID    Z sym.   atoms
    1    6 C      1-4, 6-11, 23, 27-30, 32, 34, 38, 40-42, 45-47
    2    7 N      5, 12, 24
    3    1 H      13-21, 25, 26, 35-37, 39, 43, 44, 48, 49
    4   28 Ni     22
    5    8 O      31, 33

           -------------------------------------------------
          |                Calculation Setup                |
           -------------------------------------------------

          program call               : xtb isomer1_embed_47.xyz --sp
          coordinate file            : isomer1_embed_47.xyz
          omp threads                :                    16


           -------------------------------------------------
          |                 G F N 2 - x T B                 |
           -------------------------------------------------

        Reference                      10.1021/acs.jctc.8b01176
      * Hamiltonian:
        H0-scaling (s, p, d)           1.850000    2.230000    2.230000
        zeta-weighting                 0.500000
      * Dispersion:
        s8                             2.700000
        a1                             0.520000
        a2                             5.000000
        s9                             5.000000
      * Repulsion:
        kExp                           1.500000    1.000000
        rExp                           1.000000
      * Coulomb:
        alpha                          2.000000
        third order                    shell-resolved
        anisotropic                    true
        a3                             3.000000
        a5                             4.000000
        cn-shift                       1.200000
        cn-exp                         4.000000
        max-rad                        5.000000

q/qsh data taken from xtbrestart
CAMM data taken from xtbrestart

          ...................................................
          :                      SETUP                      :
          :.................................................:
          :  # basis functions                 145          :
          :  # atomic orbitals                 144          :
          :  # shells                           80          :
          :  # electrons                       152          :
          :  max. iterations                   250          :
          :  Hamiltonian                  GFN2-xTB          :
          :  restarted?                       true          :
          :  GBSA solvation                  false          :
          :  PC potential                    false          :
          :  electronic temp.          300.0000000     K    :
          :  accuracy                    1.0000000          :
          :  -> integral cutoff          0.2500000E+02      :
          :  -> integral neglect         0.1000000E-07      :
          :  -> SCF convergence          0.1000000E-05 Eh   :
          :  -> wf. convergence          0.1000000E-03 e    :
          :  Broyden damping             0.4000000          :
          :  net charge                          0          :
          :  unpaired electrons                  0          :
          ...................................................

 iter      E             dE          RMSdq      gap      omega  full diag
   1    -84.0934984 -0.840935E+02  0.406E+00    0.89       0.0  T
   2    -84.0992616 -0.576323E-02  0.254E+00    0.59       1.0  T
   3    -84.0663035  0.329581E-01  0.792E-01    0.66       1.0  T
   4    -84.1027418 -0.364382E-01  0.306E-01    0.52       1.0  T
   5    -84.1028334 -0.916561E-04  0.177E-01    0.63       1.0  T
   6    -84.1036165 -0.783039E-03  0.695E-02    0.56       1.0  T
   7    -84.1037168 -0.100386E-03  0.281E-02    0.58       1.0  T
   8    -84.1037200 -0.319232E-05  0.199E-02    0.57       1.0  T
   9    -84.1037249 -0.489533E-05  0.734E-03    0.57       1.9  T
  10    -84.1037255 -0.536834E-06  0.402E-03    0.57       3.6  T
  11    -84.1037256 -0.121911E-06  0.198E-03    0.57       7.2  T
  12    -84.1037256 -0.479234E-07  0.835E-04    0.57      17.1  T
  13    -84.1037256 -0.971929E-08  0.482E-04    0.57      29.6  T

   *** convergence criteria satisfied after 13 iterations ***

         #    Occupation            Energy/Eh            Energy/eV
      -------------------------------------------------------------
         1        2.0000           -0.7127588             -19.3952
       ...           ...                  ...                  ...
        70        2.0000           -0.3779209             -10.2838
        71        2.0000           -0.3740556             -10.1786
        72        2.0000           -0.3735859             -10.1658
        73        2.0000           -0.3644721              -9.9178
        74        2.0000           -0.3605217              -9.8103
        75        2.0000           -0.3542197              -9.6388
        76        2.0000           -0.3394300              -9.2364 (HOMO)
        77        0.0000           -0.3184022              -8.6642 (LUMO)
        78                         -0.2883919              -7.8475
        79                         -0.2828375              -7.6964
        80                         -0.2555687              -6.9544
        81                         -0.2424576              -6.5976
       ...                                ...                  ...
       144                          1.5487955              42.1449
      -------------------------------------------------------------
                  HL-Gap            0.0210278 Eh            0.5722 eV
             Fermi-level           -0.3289161 Eh           -8.9503 eV

 SCC (total)                   0 d,  0 h,  0 min,  0.058 sec
 SCC setup                      ...        0 min,  0.000 sec (  0.825%)
 Dispersion                     ...        0 min,  0.001 sec (  1.575%)
 classical contributions        ...        0 min,  0.000 sec (  0.243%)
 integral evaluation            ...        0 min,  0.005 sec (  9.316%)
 iterations                     ...        0 min,  0.044 sec ( 75.719%)
 molecular gradient             ...        0 min,  0.007 sec ( 11.506%)
 printout                       ...        0 min,  0.000 sec (  0.745%)

         :::::::::::::::::::::::::::::::::::::::::::::::::::::
         ::                     SUMMARY                     ::
         :::::::::::::::::::::::::::::::::::::::::::::::::::::
         :: total energy             -82.830575565240 Eh    ::
         :: gradient norm              0.026230512834 Eh/a0 ::
         :: HOMO-LUMO gap              0.572196109764 eV    ::
         ::.................................................::
         :: SCC energy               -84.102488122396 Eh    ::
         :: -> isotropic ES            0.095737442000 Eh    ::
         :: -> anisotropic ES          0.001745131172 Eh    ::
         :: -> anisotropic XC          0.035607048456 Eh    ::
         :: -> dispersion             -0.068334931418 Eh    ::
         :: repulsion energy           1.271912557156 Eh    ::
         :: add. restraining           0.000000000000 Eh    ::
         :: total charge               0.000000000005 e     ::
         :::::::::::::::::::::::::::::::::::::::::::::::::::::

           -------------------------------------------------
          |                Property Printout                |
           -------------------------------------------------

    * Orbital Energies and Occupations

         #    Occupation            Energy/Eh            Energy/eV
      -------------------------------------------------------------
         1        2.0000           -0.7127588             -19.3952
       ...           ...                  ...                  ...
        64        2.0000           -0.4055740             -11.0362
        65        2.0000           -0.4038101             -10.9882
        66        2.0000           -0.4034334             -10.9780
        67        2.0000           -0.4016034             -10.9282
        68        2.0000           -0.3908119             -10.6345
        69        2.0000           -0.3788307             -10.3085
        70        2.0000           -0.3779209             -10.2838
        71        2.0000           -0.3740556             -10.1786
        72        2.0000           -0.3735859             -10.1658
        73        2.0000           -0.3644721              -9.9178
        74        2.0000           -0.3605217              -9.8103
        75        2.0000           -0.3542197              -9.6388
        76        2.0000           -0.3394300              -9.2364 (HOMO)
        77        0.0000           -0.3184022              -8.6642 (LUMO)
        78                         -0.2883919              -7.8475
        79                         -0.2828375              -7.6964
        80                         -0.2555687              -6.9544
        81                         -0.2424576              -6.5976
        82                         -0.2203463              -5.9959
        83                         -0.2107594              -5.7351
        84                         -0.1953133              -5.3147
        85                         -0.1941758              -5.2838
        86                         -0.1649853              -4.4895
        87                         -0.1321828              -3.5969
       ...                                ...                  ...
       144                          1.5487955              42.1449
      -------------------------------------------------------------
                  HL-Gap            0.0210278 Eh            0.5722 eV
             Fermi-level           -0.3289161 Eh           -8.9503 eV

     #   Z          covCN         q      C6AA      α(0)
     1   6 C        2.915    -0.029    28.722     8.788
     2   6 C        2.924    -0.008    28.225     8.712
     3   6 C        2.915    -0.036    28.905     8.816
     4   6 C        2.993     0.078    26.242     8.403
     5   7 N        2.647     0.002    21.229     6.843
     6   6 C        2.890     0.058    26.704     8.472
     7   6 C        3.007     0.081    26.189     8.395
     8   6 C        2.919    -0.037    28.912     8.818
     9   6 C        2.923    -0.010    28.267     8.719
    10   6 C        2.917    -0.031    28.783     8.798
    11   6 C        2.896     0.046    26.970     8.515
    12   7 N        2.639    -0.017    21.594     6.902
    13   1 H        0.926     0.061     2.192     2.316
    14   1 H        0.926     0.053     2.282     2.362
    15   1 H        0.926     0.049     2.336     2.390
    16   1 H        0.925     0.116     1.647     2.007
    17   1 H        0.926     0.054     2.276     2.359
    18   1 H        0.926     0.056     2.246     2.344
    19   1 H        0.926     0.060     2.196     2.317
    20   1 H        0.926     0.087     1.907     2.159
    21   1 H        0.926     0.024     2.670     2.555
    22  28 Ni       3.360    -0.280   189.131    28.376
    23   6 C        3.692     0.040    20.075     6.411
    24   7 N        2.754    -0.125    23.709     7.232
    25   1 H        0.922     0.054     2.274     2.358
    26   1 H        0.925     0.061     2.190     2.314
    27   6 C        2.983     0.023    27.487     8.600
    28   6 C        2.674     0.415    20.015     7.321
    29   6 C        2.922    -0.041    29.010     8.833
    30   6 C        2.910     0.074    26.349     8.417
    31   8 O        1.600    -0.329    19.562     5.969
    32   6 C        2.920    -0.029    28.735     8.791
    33   8 O        0.857    -0.475    23.229     6.462
    34   6 C        2.924    -0.044    29.097     8.846
    35   1 H        0.926     0.059     2.208     2.324
    36   1 H        0.926     0.029     2.599     2.521
    37   1 H        0.925     0.027     2.630     2.536
    38   6 C        2.925    -0.024    28.595     8.769
    39   1 H        0.926     0.031     2.571     2.508
    40   6 C        2.918    -0.032    28.801     8.801
    41   6 C        2.917    -0.031    28.771     8.796
    42   6 C        2.920    -0.033    28.831     8.805
    43   1 H        0.926     0.029     2.597     2.520
    44   1 H        0.926     0.023     2.691     2.566
    45   6 C        2.920    -0.034    28.846     8.808
    46   6 C        2.918    -0.041    29.031     8.836
    47   6 C        2.924    -0.052    29.299     8.877
    48   1 H        0.926     0.022     2.703     2.571
    49   1 H        0.926     0.029     2.598     2.521

 Mol. C6AA /au·bohr⁶  :      36677.261143
 Mol. C8AA /au·bohr⁸  :    1015958.804506
 Mol. α(0) /au        :        312.675591


Wiberg/Mayer (AO) data.
largest (>0.10) Wiberg bond orders for each atom

 ---------------------------------------------------------------------------
     #   Z sym  total        # sym  WBO       # sym  WBO       # sym  WBO
 ---------------------------------------------------------------------------
     1   6 C    3.977 --     2 C    1.427     6 C    1.421    13 H    0.968
     2   6 C    3.986 --     3 C    1.448     1 C    1.427    14 H    0.969
     3   6 C    3.989 --     2 C    1.448     4 C    1.380    15 H    0.963
                             6 C    0.102
     4   6 C    3.979 --     3 C    1.380     5 N    1.306     7 C    1.060
     5   7 N    3.529 --     6 C    1.401     4 C    1.306    22 Ni   0.557
     6   6 C    3.965 --     1 C    1.421     5 N    1.401    16 H    0.937
                             3 C    0.102
     7   6 C    3.978 --     8 C    1.387    12 N    1.287     4 C    1.060
     8   6 C    3.989 --     9 C    1.446     7 C    1.387    17 H    0.962
     9   6 C    3.980 --     8 C    1.446    10 C    1.416    18 H    0.968
    10   6 C    3.978 --    11 C    1.435     9 C    1.416    19 H    0.968
    11   6 C    3.972 --    10 C    1.435    12 N    1.383    20 H    0.939
    12   7 N    3.543 --    11 C    1.383     7 C    1.287    22 Ni   0.605
    13   1 H    0.996 --     1 C    0.968
    14   1 H    0.996 --     2 C    0.969
    15   1 H    0.997 --     3 C    0.963
    16   1 H    0.986 --     6 C    0.937
    17   1 H    0.997 --     8 C    0.962
    18   1 H    0.996 --     9 C    0.968
    19   1 H    0.996 --    10 C    0.968
    20   1 H    0.992 --    11 C    0.939
    21   1 H    0.999 --    47 C    0.964
    22  28 Ni   3.533 --    23 C    0.859    31 O    0.780    12 N    0.605
                             5 N    0.557
    23   6 C    3.931 --    27 C    0.993    24 N    0.939    25 H    0.887
                            22 Ni   0.859
    24   7 N    3.474 --    28 C    1.075    30 C    1.074    23 C    0.939
                            33 O    0.126
    25   1 H    0.995 --    23 C    0.887
    26   1 H    0.996 --    38 C    0.936
    27   6 C    3.988 --    29 C    1.386    38 C    1.367    23 C    0.993
                            45 C    0.105
    28   6 C    3.943 --    33 O    1.605    31 O    1.176    24 N    1.075
    29   6 C    3.986 --    40 C    1.442    27 C    1.386    37 H    0.965
                            41 C    0.105
    30   6 C    3.967 --    47 C    1.366    34 C    1.361    24 N    1.074
    31   8 O    2.346 --    28 C    1.176    22 Ni   0.780    33 O    0.136
    32   6 C    3.991 --    34 C    1.460    46 C    1.427    36 H    0.971
                            47 C    0.104
    33   8 O    1.970 --    28 C    1.605    31 O    0.136    24 N    0.126
    34   6 C    3.985 --    32 C    1.460    30 C    1.361    35 H    0.964
                            42 C    0.107
    35   1 H    0.996 --    34 C    0.964
    36   1 H    0.999 --    32 C    0.971
    37   1 H    0.999 --    29 C    0.965
    38   6 C    3.992 --    41 C    1.460    27 C    1.367    26 H    0.936
                            40 C    0.108
    39   1 H    0.999 --    41 C    0.971
    40   6 C    3.991 --    29 C    1.442    45 C    1.441    43 H    0.971
                            38 C    0.108
    41   6 C    3.992 --    38 C    1.460    45 C    1.425    39 H    0.971
                            29 C    0.105
    42   6 C    3.992 --    47 C    1.453    46 C    1.433    48 H    0.971
                            34 C    0.107
    43   1 H    0.998 --    40 C    0.971
    44   1 H    0.999 --    46 C    0.972
    45   6 C    3.987 --    40 C    1.441    41 C    1.425    49 H    0.972
                            27 C    0.105
    46   6 C    3.986 --    42 C    1.433    32 C    1.427    44 H    0.972
    47   6 C    3.986 --    42 C    1.453    30 C    1.366    21 H    0.964
                            32 C    0.104
    48   1 H    0.999 --    42 C    0.971
    49   1 H    0.999 --    45 C    0.972
 ---------------------------------------------------------------------------

Topologies differ in total number of bonds
Writing topology from bond orders to xtbtopo.mol

molecular dipole:
                 x           y           z       tot (Debye)
 q only:        4.261      -2.032      -0.805
   full:        4.827      -2.476      -1.018      14.030
molecular quadrupole (traceless):
                xx          xy          yy          xz          yz          zz
 q only:        3.324     -80.032      28.177     -31.499      39.068     -31.501
  q+dip:        0.124     -91.536      34.559     -34.613      51.946     -34.683
   full:       -0.977     -92.489      34.867     -37.304      46.481     -33.891


           -------------------------------------------------
          | TOTAL ENERGY              -82.830575565240 Eh   |
          | GRADIENT NORM               0.026230512834 Eh/α |
          | HOMO-LUMO GAP               0.572196109764 eV   |
           -------------------------------------------------

------------------------------------------------------------------------
 * finished run on 2026/01/15 at 09:37:12.569     
------------------------------------------------------------------------
 total:
 * wall-time:     0 d,  0 h,  0 min,  0.073 sec
 *  cpu-time:     0 d,  0 h,  0 min,  1.051 sec
 * ratio c/w:    14.425 speedup
 SCF:
 * wall-time:     0 d,  0 h,  0 min,  0.058 sec
 *  cpu-time:     0 d,  0 h,  0 min,  0.879 sec
 * ratio c/w:    15.055 speedup

