      -----------------------------------------------------------      
     |                   =====================                   |     
     |                           x T B                           |     
     |                   =====================                   |     
     |                         S. Grimme                         |     
     |          Mulliken Center for Theoretical Chemistry        |     
     |                    University of Bonn                     |     
      -----------------------------------------------------------      

   * xtb version 6.7.0 (08769fc) compiled by 'albert@albert-system' on 2024-03-04

   xtb is free software: you can redistribute it and/or modify it under
   the terms of the GNU Lesser General Public License as published by
   the Free Software Foundation, either version 3 of the License, or
   (at your option) any later version.
   
   xtb is distributed in the hope that it will be useful,
   but WITHOUT ANY WARRANTY; without even the implied warranty of
   MERCHANTABILITY or FITNESS FOR A PARTICULAR PURPOSE.  See the
   GNU Lesser General Public License for more details.
   
   Cite this work as:
   * C. Bannwarth, E. Caldeweyher, S. Ehlert, A. Hansen, P. Pracht,
     J. Seibert, S. Spicher, S. Grimme, WIREs Comput. Mol. Sci., 2020, 11,
     e01493. DOI: 10.1002/wcms.1493
   
   for GFN2-xTB:
   * C. Bannwarth, S. Ehlert and S. Grimme., J. Chem. Theory Comput., 2019,
     15, 1652-1671. DOI: 10.1021/acs.jctc.8b01176
   for GFN1-xTB:
   * S. Grimme, C. Bannwarth, P. Shushkov, J. Chem. Theory Comput., 2017,
     13, 1989-2009. DOI: 10.1021/acs.jctc.7b00118
   for GFN0-xTB:
   * P. Pracht, E. Caldeweyher, S. Ehlert, S. Grimme, ChemRxiv, 2019, preprint.
     DOI: 10.26434/chemrxiv.8326202.v1
   for GFN-FF:
   * S. Spicher and S. Grimme, Angew. Chem. Int. Ed., 2020, 59, 15665-15673.
     DOI: 10.1002/anie.202004239
   
   for ALPB and GBSA implicit solvation:
   * S. Ehlert, M. Stahn, S. Spicher, S. Grimme, J. Chem. Theory Comput.,
     2021, 17, 4250-4261. DOI: 10.1021/acs.jctc.1c00471
   
   for ddCOSMO and CPCM-X implicit solvation:
   * M. Stahn, S. Ehlert, S. Grimme, J. Phys. Chem. A,
     2023, XX, XXXX-XXXX. DOI: 10.1021/acs.jpca.3c04382
   
   for DFT-D4:
   * E. Caldeweyher, C. Bannwarth and S. Grimme, J. Chem. Phys., 2017,
     147, 034112. DOI: 10.1063/1.4993215
   * E. Caldeweyher, S. Ehlert, A. Hansen, H. Neugebauer, S. Spicher,
     C. Bannwarth and S. Grimme, J. Chem. Phys., 2019, 150, 154122.
     DOI: 10.1063/1.5090222
   * E. Caldeweyher, J.-M. Mewes, S. Ehlert and S. Grimme, Phys. Chem. Chem. Phys.
     2020, 22, 8499-8512. DOI: 10.1039/D0CP00502A
   
   for sTDA-xTB:
   * S. Grimme and C. Bannwarth, J. Chem. Phys., 2016, 145, 054103.
     DOI: 10.1063/1.4959605
   
   in the mass-spec context:
   * V. Asgeirsson, C. Bauer and S. Grimme, Chem. Sci., 2017, 8, 4879.
     DOI: 10.1039/c7sc00601b
   * J. Koopman and S. Grimme, ACS Omega 2019, 4, 12, 15120-15133.
     DOI: 10.1021/acsomega.9b02011
   
   for metadynamics refer to:
   * S. Grimme, J. Chem. Theory Comput., 2019, 155, 2847-2862
     DOI: 10.1021/acs.jctc.9b00143
   
   for SPH calculations refer to:
   * S. Spicher and S. Grimme, J. Chem. Theory Comput., 2021, 17, 1701-1714
     DOI: 10.1021/acs.jctc.0c01306
   
   for ONIOM refer to:
   * C. Plett, A. Katbashev, S. Ehlert, S. Grimme, M. Bursch,
     Phys. Chem. Chem. Phys., 2023, 25, 17860-17868. DOI: 10.1039/D3CP02178E
   
   for DIPRO refer to:
   * J. Kohn, N. Gildemeister, S. Grimme, D. Fazzi, A. Hansen,
     J. Chem. Phys., 2023, just accepted.
   
   for PTB refer to:
   * S. Grimme, M. Mueller, A. Hansen, J. Chem. Phys., 2023, 158, 124111.
     DOI: 10.1063/5.0137838
   
   with help from (in alphabetical order)
   P. Atkinson, C. Bannwarth, F. Bohle, G. Brandenburg, E. Caldeweyher
   M. Checinski, S. Dohm, S. Ehlert, S. Ehrlich, I. Gerasimov, C. Hölzer
   A. Katbashev, J. Kohn, J. Koopman, C. Lavigne, S. Lehtola, F. März, M. Müller,
   F. Musil, H. Neugebauer, J. Pisarek, C. Plett, P. Pracht, F. Pultar,
   J. Seibert, P. Shushkov, S. Spicher, M. Stahn, M. Steiner, T. Strunk,
   J. Stückrath, T. Rose, and J. Unsleber
   
 * started run on 2026/01/15 at 09:37:11.172     
   ID    Z sym.   atoms
    1    6 C      1-4, 6-11, 23, 27-30, 32, 34, 38, 40-42, 45-47
    2    7 N      5, 12, 24
    3    1 H      13-21, 25, 26, 35-37, 39, 43, 44, 48, 49
    4   28 Ni     22
    5    8 O      31, 33

           -------------------------------------------------
          |                Calculation Setup                |
           -------------------------------------------------

          program call               : xtb isomer1_embed_36.xyz --sp
          coordinate file            : isomer1_embed_36.xyz
          omp threads                :                    16


molecular fragmentation (1/2 indicates fragments):
1111111111111111111111111112112121111111111111111
# atoms in fragment 1/2:    46     3
 fragment masses (1/2) :      396.11       44.01
CMA distance (Bohr)    :   7.440
constraining FC (au)   :  0.0500

           -------------------------------------------------
          |                 G F N 2 - x T B                 |
           -------------------------------------------------

        Reference                      10.1021/acs.jctc.8b01176
      * Hamiltonian:
        H0-scaling (s, p, d)           1.850000    2.230000    2.230000
        zeta-weighting                 0.500000
      * Dispersion:
        s8                             2.700000
        a1                             0.520000
        a2                             5.000000
        s9                             5.000000
      * Repulsion:
        kExp                           1.500000    1.000000
        rExp                           1.000000
      * Coulomb:
        alpha                          2.000000
        third order                    shell-resolved
        anisotropic                    true
        a3                             3.000000
        a5                             4.000000
        cn-shift                       1.200000
        cn-exp                         4.000000
        max-rad                        5.000000

q/qsh data taken from xtbrestart
CAMM data taken from xtbrestart

          ...................................................
          :                      SETUP                      :
          :.................................................:
          :  # basis functions                 145          :
          :  # atomic orbitals                 144          :
          :  # shells                           80          :
          :  # electrons                       152          :
          :  max. iterations                   250          :
          :  Hamiltonian                  GFN2-xTB          :
          :  restarted?                       true          :
          :  GBSA solvation                  false          :
          :  PC potential                    false          :
          :  electronic temp.          300.0000000     K    :
          :  accuracy                    1.0000000          :
          :  -> integral cutoff          0.2500000E+02      :
          :  -> integral neglect         0.1000000E-07      :
          :  -> SCF convergence          0.1000000E-05 Eh   :
          :  -> wf. convergence          0.1000000E-03 e    :
          :  Broyden damping             0.4000000          :
          :  net charge                          0          :
          :  unpaired electrons                  0          :
          ...................................................

 iter      E             dE          RMSdq      gap      omega  full diag
   1    -84.0381060 -0.840381E+02  0.520E+00    1.50       0.0  T
   2    -84.0509113 -0.128052E-01  0.319E+00    1.60       1.0  T
   3    -83.9118442  0.139067E+00  0.152E+00    1.38       1.0  T
   4    -84.0655874 -0.153743E+00  0.422E-01    1.62       1.0  T
   5    -84.0687835 -0.319606E-02  0.266E-01    1.68       1.0  T
   6    -84.0686372  0.146316E-03  0.172E-01    1.66       1.0  T
   7    -84.0692872 -0.649996E-03  0.725E-02    1.68       1.0  T
   8    -84.0693221 -0.348971E-04  0.495E-02    1.69       1.0  T
   9    -84.0693943 -0.722820E-04  0.234E-02    1.68       1.0  T
  10    -84.0693976 -0.322729E-05  0.136E-02    1.69       1.0  T
  11    -84.0693994 -0.182557E-05  0.608E-03    1.69       2.4  T
  12    -84.0693997 -0.279946E-06  0.359E-03    1.69       4.0  T
  13    -84.0693998 -0.131995E-06  0.140E-03    1.69      10.2  T
  14    -84.0693998 -0.139535E-07  0.807E-04    1.69      17.7  T
  15    -84.0693998 -0.972712E-08  0.403E-04    1.69      35.5  T

   *** convergence criteria satisfied after 15 iterations ***

         #    Occupation            Energy/Eh            Energy/eV
      -------------------------------------------------------------
         1        2.0000           -0.8031494             -21.8548
       ...           ...                  ...                  ...
        70        2.0000           -0.3903396             -10.6217
        71        2.0000           -0.3821559             -10.3990
        72        2.0000           -0.3726808             -10.1412
        73        2.0000           -0.3657170              -9.9517
        74        2.0000           -0.3541218              -9.6361
        75        2.0000           -0.3315443              -9.0218
        76        2.0000           -0.3226597              -8.7800 (HOMO)
        77                         -0.2606844              -7.0936 (LUMO)
        78                         -0.2588231              -7.0429
        79                         -0.2580067              -7.0207
        80                         -0.2550573              -6.9405
        81                         -0.2389822              -6.5030
       ...                                ...                  ...
       144                          1.7239164              46.9102
      -------------------------------------------------------------
                  HL-Gap            0.0619753 Eh            1.6864 eV
             Fermi-level           -0.2916720 Eh           -7.9368 eV

 SCC (total)                   0 d,  0 h,  0 min,  0.112 sec
 SCC setup                      ...        0 min,  0.001 sec (  0.810%)
 Dispersion                     ...        0 min,  0.001 sec (  0.863%)
 classical contributions        ...        0 min,  0.000 sec (  0.128%)
 integral evaluation            ...        0 min,  0.006 sec (  4.966%)
 iterations                     ...        0 min,  0.097 sec ( 86.345%)
 molecular gradient             ...        0 min,  0.007 sec (  6.426%)
 printout                       ...        0 min,  0.000 sec (  0.425%)

         :::::::::::::::::::::::::::::::::::::::::::::::::::::
         ::                     SUMMARY                     ::
         :::::::::::::::::::::::::::::::::::::::::::::::::::::
         :: total energy             -82.719402996358 Eh    ::
         :: gradient norm              0.125044364602 Eh/a0 ::
         :: HOMO-LUMO gap              1.686432459190 eV    ::
         ::.................................................::
         :: SCC energy               -84.067230762115 Eh    ::
         :: -> isotropic ES            0.059835124403 Eh    ::
         :: -> anisotropic ES          0.010088947556 Eh    ::
         :: -> anisotropic XC          0.043615807874 Eh    ::
         :: -> dispersion             -0.075273508174 Eh    ::
         :: repulsion energy           1.347827765758 Eh    ::
         :: add. restraining           0.000000000000 Eh    ::
         :: total charge               0.000000000000 e     ::
         :::::::::::::::::::::::::::::::::::::::::::::::::::::

           -------------------------------------------------
          |                Property Printout                |
           -------------------------------------------------

    * Orbital Energies and Occupations

         #    Occupation            Energy/Eh            Energy/eV
      -------------------------------------------------------------
         1        2.0000           -0.8031494             -21.8548
       ...           ...                  ...                  ...
        64        2.0000           -0.4116049             -11.2003
        65        2.0000           -0.4070170             -11.0755
        66        2.0000           -0.4051576             -11.0249
        67        2.0000           -0.4000464             -10.8858
        68        2.0000           -0.3974419             -10.8149
        69        2.0000           -0.3951739             -10.7532
        70        2.0000           -0.3903396             -10.6217
        71        2.0000           -0.3821559             -10.3990
        72        2.0000           -0.3726808             -10.1412
        73        2.0000           -0.3657170              -9.9517
        74        2.0000           -0.3541218              -9.6361
        75        2.0000           -0.3315443              -9.0218
        76        2.0000           -0.3226597              -8.7800 (HOMO)
        77                         -0.2606844              -7.0936 (LUMO)
        78                         -0.2588231              -7.0429
        79                         -0.2580067              -7.0207
        80                         -0.2550573              -6.9405
        81                         -0.2389822              -6.5030
        82                         -0.2345901              -6.3835
        83                         -0.2233547              -6.0778
        84                         -0.2170816              -5.9071
        85                         -0.2134983              -5.8096
        86                         -0.1995949              -5.4313
        87                         -0.1948341              -5.3017
       ...                                ...                  ...
       144                          1.7239164              46.9102
      -------------------------------------------------------------
                  HL-Gap            0.0619753 Eh            1.6864 eV
             Fermi-level           -0.2916720 Eh           -7.9368 eV

     #   Z          covCN         q      C6AA      α(0)
     1   6 C        2.915    -0.040    29.003     8.831
     2   6 C        2.933    -0.009    28.254     8.717
     3   6 C        2.912    -0.034    28.841     8.806
     4   6 C        2.850     0.115    25.458     8.269
     5   7 N        2.622    -0.041    22.042     6.973
     6   6 C        2.888     0.044    27.016     8.521
     7   6 C        2.852     0.119    25.380     8.257
     8   6 C        2.912    -0.033    28.833     8.805
     9   6 C        2.933    -0.009    28.234     8.714
    10   6 C        2.915    -0.040    29.002     8.831
    11   6 C        2.889     0.046    26.974     8.515
    12   7 N        2.621    -0.059    22.399     7.029
    13   1 H        0.926     0.044     2.402     2.423
    14   1 H        0.926     0.045     2.383     2.414
    15   1 H        0.926     0.049     2.330     2.387
    16   1 H        0.925     0.050     2.320     2.382
    17   1 H        0.926     0.049     2.338     2.391
    18   1 H        0.926     0.045     2.385     2.415
    19   1 H        0.926     0.043     2.405     2.425
    20   1 H        0.925     0.047     2.360     2.402
    21   1 H        0.926     0.017     2.777     2.606
    22  28 Ni       5.385    -0.572   263.580    31.387
    23   6 C        3.675     0.127    18.721     6.200
    24   7 N        2.329    -0.159    24.663     7.373
    25   1 H        0.923     0.055     2.264     2.353
    26   1 H        0.925     0.032     2.559     2.502
    27   6 C        2.967     0.005    27.896     8.663
    28   6 C        1.731     0.452    21.758     7.547
    29   6 C        2.922    -0.028    28.709     8.787
    30   6 C        2.907     0.090    25.995     8.360
    31   8 O        1.560    -0.096    15.842     5.370
    32   6 C        2.918    -0.034    28.856     8.809
    33   8 O        0.856    -0.244    18.799     5.813
    34   6 C        2.924    -0.044    29.081     8.843
    35   1 H        0.925     0.037     2.493     2.469
    36   1 H        0.925     0.018     2.760     2.598
    37   1 H        0.926     0.041     2.435     2.440
    38   6 C        2.928    -0.034    28.853     8.809
    39   1 H        0.926     0.033     2.548     2.496
    40   6 C        2.919    -0.031    28.777     8.797
    41   6 C        2.918    -0.030    28.739     8.791
    42   6 C        2.918    -0.032    28.804     8.801
    43   1 H        0.926     0.031     2.576     2.510
    44   1 H        0.926     0.017     2.784     2.609
    45   6 C        2.920    -0.031    28.770     8.796
    46   6 C        2.919    -0.047    29.161     8.855
    47   6 C        2.923    -0.054    29.333     8.882
    48   1 H        0.926     0.019     2.742     2.590
    49   1 H        0.926     0.032     2.559     2.501

 Mol. C6AA /au·bohr⁶  :      37759.230540
 Mol. C8AA /au·bohr⁸  :    1064681.993778
 Mol. α(0) /au        :        316.067555


Wiberg/Mayer (AO) data.
largest (>0.10) Wiberg bond orders for each atom

 ---------------------------------------------------------------------------
     #   Z sym  total        # sym  WBO       # sym  WBO       # sym  WBO
 ---------------------------------------------------------------------------
     1   6 C    3.987 --     2 C    1.439     6 C    1.424    13 H    0.967
                             4 C    0.108
     2   6 C    3.986 --     1 C    1.439     3 C    1.431    14 H    0.965
     3   6 C    3.986 --     2 C    1.431     4 C    1.365    15 H    0.966
                             6 C    0.115
     4   6 C    3.890 --     5 N    1.408     3 C    1.365    22 Ni   0.740
                             1 C    0.108
     5   7 N    3.482 --     4 C    1.408     6 C    1.396    22 Ni   0.428
     6   6 C    3.976 --     1 C    1.424     5 N    1.396    16 H    0.962
                             3 C    0.115
     7   6 C    3.895 --    12 N    1.408     8 C    1.357    22 Ni   0.740
                            10 C    0.106
     8   6 C    3.987 --     9 C    1.439     7 C    1.357    17 H    0.966
                            11 C    0.115
     9   6 C    3.986 --     8 C    1.439    10 C    1.431    18 H    0.965
    10   6 C    3.988 --     9 C    1.431    11 C    1.429    19 H    0.967
                             7 C    0.106
    11   6 C    3.977 --    10 C    1.429    12 N    1.388    20 H    0.961
                             8 C    0.115
    12   7 N    3.462 --     7 C    1.408    11 C    1.388    22 Ni   0.416
    13   1 H    0.995 --     1 C    0.967
    14   1 H    0.993 --     2 C    0.965
    15   1 H    0.997 --     3 C    0.966
    16   1 H    0.997 --     6 C    0.962
    17   1 H    0.998 --     8 C    0.966
    18   1 H    0.993 --     9 C    0.965
    19   1 H    0.995 --    10 C    0.967
    20   1 H    0.998 --    11 C    0.961
    21   1 H    1.000 --    47 C    0.971
    22  28 Ni   4.067 --     7 C    0.740     4 C    0.740    23 C    0.447
                             5 N    0.428    12 N    0.416    24 N    0.369
                            31 O    0.350
    23   6 C    3.980 --    24 N    1.457    27 C    1.002    25 H    0.892
                            22 Ni   0.447
    24   7 N    3.316 --    23 C    1.457    30 C    1.149    22 Ni   0.369
    25   1 H    0.995 --    23 C    0.892
    26   1 H    0.999 --    38 C    0.966
    27   6 C    3.985 --    29 C    1.382    38 C    1.372    23 C    1.002
                            45 C    0.103
    28   6 C    3.935 --    33 O    1.936    31 O    1.876
    29   6 C    3.990 --    40 C    1.449    27 C    1.382    37 H    0.960
                            41 C    0.105
    30   6 C    3.975 --    34 C    1.334    47 C    1.316    24 N    1.149
    31   8 O    2.628 --    28 C    1.876    33 O    0.365    22 Ni   0.350
    32   6 C    3.992 --    34 C    1.463    46 C    1.426    36 H    0.971
                            47 C    0.102
    33   8 O    2.345 --    28 C    1.936    31 O    0.365
    34   6 C    3.985 --    32 C    1.463    30 C    1.334    35 H    0.951
                            42 C    0.101
    35   1 H    0.999 --    34 C    0.951
    36   1 H    0.998 --    32 C    0.971
    37   1 H    0.998 --    29 C    0.960
    38   6 C    3.988 --    41 C    1.462    27 C    1.372    26 H    0.966
                            40 C    0.106
    39   1 H    0.998 --    41 C    0.971
    40   6 C    3.992 --    29 C    1.449    45 C    1.437    43 H    0.971
                            38 C    0.106
    41   6 C    3.992 --    38 C    1.462    45 C    1.426    39 H    0.971
                            29 C    0.105
    42   6 C    3.991 --    47 C    1.468    46 C    1.421    48 H    0.970
                            34 C    0.101
    43   1 H    0.999 --    40 C    0.971
    44   1 H    1.000 --    46 C    0.972
    45   6 C    3.980 --    40 C    1.437    41 C    1.426    49 H    0.971
                            27 C    0.103
    46   6 C    3.981 --    32 C    1.426    42 C    1.421    44 H    0.972
    47   6 C    3.984 --    42 C    1.468    30 C    1.316    21 H    0.971
                            32 C    0.102
    48   1 H    0.999 --    42 C    0.970
    49   1 H    0.998 --    45 C    0.971
 ---------------------------------------------------------------------------

Topologies differ in total number of bonds
Writing topology from bond orders to xtbtopo.mol

molecular dipole:
                 x           y           z       tot (Debye)
 q only:       -0.207      -1.618       0.728
   full:       -0.118      -1.514       0.957       4.562
molecular quadrupole (traceless):
                xx          xy          yy          xz          yz          zz
 q only:      -19.446     -24.991      18.834       0.024     -10.237       0.612
  q+dip:      -20.356     -26.212      22.564      -1.818      -8.784      -2.208
   full:      -17.849     -27.603      16.013       2.463      -9.179       1.836


           -------------------------------------------------
          | TOTAL ENERGY              -82.719402996358 Eh   |
          | GRADIENT NORM               0.125044364602 Eh/α |
          | HOMO-LUMO GAP               1.686432459190 eV   |
           -------------------------------------------------

------------------------------------------------------------------------
 * finished run on 2026/01/15 at 09:37:11.300     
------------------------------------------------------------------------
 total:
 * wall-time:     0 d,  0 h,  0 min,  0.128 sec
 *  cpu-time:     0 d,  0 h,  0 min,  1.489 sec
 * ratio c/w:    11.660 speedup
 SCF:
 * wall-time:     0 d,  0 h,  0 min,  0.112 sec
 *  cpu-time:     0 d,  0 h,  0 min,  1.330 sec
 * ratio c/w:    11.863 speedup

