      -----------------------------------------------------------      
     |                   =====================                   |     
     |                           x T B                           |     
     |                   =====================                   |     
     |                         S. Grimme                         |     
     |          Mulliken Center for Theoretical Chemistry        |     
     |                    University of Bonn                     |     
      -----------------------------------------------------------      

   * xtb version 6.7.0 (08769fc) compiled by 'albert@albert-system' on 2024-03-04

   xtb is free software: you can redistribute it and/or modify it under
   the terms of the GNU Lesser General Public License as published by
   the Free Software Foundation, either version 3 of the License, or
   (at your option) any later version.
   
   xtb is distributed in the hope that it will be useful,
   but WITHOUT ANY WARRANTY; without even the implied warranty of
   MERCHANTABILITY or FITNESS FOR A PARTICULAR PURPOSE.  See the
   GNU Lesser General Public License for more details.
   
   Cite this work as:
   * C. Bannwarth, E. Caldeweyher, S. Ehlert, A. Hansen, P. Pracht,
     J. Seibert, S. Spicher, S. Grimme, WIREs Comput. Mol. Sci., 2020, 11,
     e01493. DOI: 10.1002/wcms.1493
   
   for GFN2-xTB:
   * C. Bannwarth, S. Ehlert and S. Grimme., J. Chem. Theory Comput., 2019,
     15, 1652-1671. DOI: 10.1021/acs.jctc.8b01176
   for GFN1-xTB:
   * S. Grimme, C. Bannwarth, P. Shushkov, J. Chem. Theory Comput., 2017,
     13, 1989-2009. DOI: 10.1021/acs.jctc.7b00118
   for GFN0-xTB:
   * P. Pracht, E. Caldeweyher, S. Ehlert, S. Grimme, ChemRxiv, 2019, preprint.
     DOI: 10.26434/chemrxiv.8326202.v1
   for GFN-FF:
   * S. Spicher and S. Grimme, Angew. Chem. Int. Ed., 2020, 59, 15665-15673.
     DOI: 10.1002/anie.202004239
   
   for ALPB and GBSA implicit solvation:
   * S. Ehlert, M. Stahn, S. Spicher, S. Grimme, J. Chem. Theory Comput.,
     2021, 17, 4250-4261. DOI: 10.1021/acs.jctc.1c00471
   
   for ddCOSMO and CPCM-X implicit solvation:
   * M. Stahn, S. Ehlert, S. Grimme, J. Phys. Chem. A,
     2023, XX, XXXX-XXXX. DOI: 10.1021/acs.jpca.3c04382
   
   for DFT-D4:
   * E. Caldeweyher, C. Bannwarth and S. Grimme, J. Chem. Phys., 2017,
     147, 034112. DOI: 10.1063/1.4993215
   * E. Caldeweyher, S. Ehlert, A. Hansen, H. Neugebauer, S. Spicher,
     C. Bannwarth and S. Grimme, J. Chem. Phys., 2019, 150, 154122.
     DOI: 10.1063/1.5090222
   * E. Caldeweyher, J.-M. Mewes, S. Ehlert and S. Grimme, Phys. Chem. Chem. Phys.
     2020, 22, 8499-8512. DOI: 10.1039/D0CP00502A
   
   for sTDA-xTB:
   * S. Grimme and C. Bannwarth, J. Chem. Phys., 2016, 145, 054103.
     DOI: 10.1063/1.4959605
   
   in the mass-spec context:
   * V. Asgeirsson, C. Bauer and S. Grimme, Chem. Sci., 2017, 8, 4879.
     DOI: 10.1039/c7sc00601b
   * J. Koopman and S. Grimme, ACS Omega 2019, 4, 12, 15120-15133.
     DOI: 10.1021/acsomega.9b02011
   
   for metadynamics refer to:
   * S. Grimme, J. Chem. Theory Comput., 2019, 155, 2847-2862
     DOI: 10.1021/acs.jctc.9b00143
   
   for SPH calculations refer to:
   * S. Spicher and S. Grimme, J. Chem. Theory Comput., 2021, 17, 1701-1714
     DOI: 10.1021/acs.jctc.0c01306
   
   for ONIOM refer to:
   * C. Plett, A. Katbashev, S. Ehlert, S. Grimme, M. Bursch,
     Phys. Chem. Chem. Phys., 2023, 25, 17860-17868. DOI: 10.1039/D3CP02178E
   
   for DIPRO refer to:
   * J. Kohn, N. Gildemeister, S. Grimme, D. Fazzi, A. Hansen,
     J. Chem. Phys., 2023, just accepted.
   
   for PTB refer to:
   * S. Grimme, M. Mueller, A. Hansen, J. Chem. Phys., 2023, 158, 124111.
     DOI: 10.1063/5.0137838
   
   with help from (in alphabetical order)
   P. Atkinson, C. Bannwarth, F. Bohle, G. Brandenburg, E. Caldeweyher
   M. Checinski, S. Dohm, S. Ehlert, S. Ehrlich, I. Gerasimov, C. Hölzer
   A. Katbashev, J. Kohn, J. Koopman, C. Lavigne, S. Lehtola, F. März, M. Müller,
   F. Musil, H. Neugebauer, J. Pisarek, C. Plett, P. Pracht, F. Pultar,
   J. Seibert, P. Shushkov, S. Spicher, M. Stahn, M. Steiner, T. Strunk,
   J. Stückrath, T. Rose, and J. Unsleber
   
 * started run on 2026/01/15 at 09:37:11.581     
   ID    Z sym.   atoms
    1    6 C      1-4, 6-11, 23, 27-30, 32, 34, 38, 40-42, 45-47
    2    7 N      5, 12, 24
    3    1 H      13-21, 25, 26, 35-37, 39, 43, 44, 48, 49
    4   28 Ni     22
    5    8 O      31, 33

           -------------------------------------------------
          |                Calculation Setup                |
           -------------------------------------------------

          program call               : xtb isomer1_embed_39.xyz --sp
          coordinate file            : isomer1_embed_39.xyz
          omp threads                :                    16


molecular fragmentation (1/2 indicates fragments):
1111111111111111111111111112112121111111111111111
# atoms in fragment 1/2:    46     3
 fragment masses (1/2) :      396.11       44.01
CMA distance (Bohr)    :   7.454
constraining FC (au)   :  0.0500

           -------------------------------------------------
          |                 G F N 2 - x T B                 |
           -------------------------------------------------

        Reference                      10.1021/acs.jctc.8b01176
      * Hamiltonian:
        H0-scaling (s, p, d)           1.850000    2.230000    2.230000
        zeta-weighting                 0.500000
      * Dispersion:
        s8                             2.700000
        a1                             0.520000
        a2                             5.000000
        s9                             5.000000
      * Repulsion:
        kExp                           1.500000    1.000000
        rExp                           1.000000
      * Coulomb:
        alpha                          2.000000
        third order                    shell-resolved
        anisotropic                    true
        a3                             3.000000
        a5                             4.000000
        cn-shift                       1.200000
        cn-exp                         4.000000
        max-rad                        5.000000

q/qsh data taken from xtbrestart
CAMM data taken from xtbrestart

          ...................................................
          :                      SETUP                      :
          :.................................................:
          :  # basis functions                 145          :
          :  # atomic orbitals                 144          :
          :  # shells                           80          :
          :  # electrons                       152          :
          :  max. iterations                   250          :
          :  Hamiltonian                  GFN2-xTB          :
          :  restarted?                       true          :
          :  GBSA solvation                  false          :
          :  PC potential                    false          :
          :  electronic temp.          300.0000000     K    :
          :  accuracy                    1.0000000          :
          :  -> integral cutoff          0.2500000E+02      :
          :  -> integral neglect         0.1000000E-07      :
          :  -> SCF convergence          0.1000000E-05 Eh   :
          :  -> wf. convergence          0.1000000E-03 e    :
          :  Broyden damping             0.4000000          :
          :  net charge                          0          :
          :  unpaired electrons                  0          :
          ...................................................

 iter      E             dE          RMSdq      gap      omega  full diag
   1    -84.0519993 -0.840520E+02  0.695E+00    1.74       0.0  T
   2    -84.0631274 -0.111281E-01  0.423E+00    1.74       1.0  T
   3    -84.0470947  0.160327E-01  0.794E-01    1.62       1.0  T
   4    -84.0651854 -0.180907E-01  0.528E-01    1.65       1.0  T
   5    -84.0662192 -0.103373E-02  0.346E-01    1.71       1.0  T
   6    -84.0690683 -0.284908E-02  0.119E-01    1.68       1.0  T
   7    -84.0693422 -0.273960E-03  0.628E-02    1.68       1.0  T
   8    -84.0693737 -0.314783E-04  0.332E-02    1.69       1.0  T
   9    -84.0693828 -0.909558E-05  0.195E-02    1.68       1.0  T
  10    -84.0693856 -0.280908E-05  0.137E-02    1.69       1.0  T
  11    -84.0693879 -0.230835E-05  0.634E-03    1.69       2.3  T
  12    -84.0693885 -0.555996E-06  0.282E-03    1.69       5.1  T
  13    -84.0693886 -0.167154E-06  0.919E-04    1.69      15.5  T
  14    -84.0693886 -0.108109E-07  0.503E-04    1.69      28.4  T

   *** convergence criteria satisfied after 14 iterations ***

         #    Occupation            Energy/Eh            Energy/eV
      -------------------------------------------------------------
         1        2.0000           -0.8031188             -21.8540
       ...           ...                  ...                  ...
        70        2.0000           -0.3902089             -10.6181
        71        2.0000           -0.3821063             -10.3976
        72        2.0000           -0.3727751             -10.1437
        73        2.0000           -0.3658873              -9.9563
        74        2.0000           -0.3542084              -9.6385
        75        2.0000           -0.3315118              -9.0209
        76        2.0000           -0.3227367              -8.7821 (HOMO)
        77                         -0.2607091              -7.0943 (LUMO)
        78                         -0.2588130              -7.0427
        79                         -0.2581468              -7.0245
        80                         -0.2551008              -6.9416
        81                         -0.2390871              -6.5059
       ...                                ...                  ...
       144                          1.7296443              47.0660
      -------------------------------------------------------------
                  HL-Gap            0.0620275 Eh            1.6879 eV
             Fermi-level           -0.2917229 Eh           -7.9382 eV

 SCC (total)                   0 d,  0 h,  0 min,  0.113 sec
 SCC setup                      ...        0 min,  0.000 sec (  0.344%)
 Dispersion                     ...        0 min,  0.001 sec (  0.759%)
 classical contributions        ...        0 min,  0.000 sec (  0.107%)
 integral evaluation            ...        0 min,  0.006 sec (  5.034%)
 iterations                     ...        0 min,  0.096 sec ( 84.926%)
 molecular gradient             ...        0 min,  0.009 sec (  8.359%)
 printout                       ...        0 min,  0.000 sec (  0.432%)

         :::::::::::::::::::::::::::::::::::::::::::::::::::::
         ::                     SUMMARY                     ::
         :::::::::::::::::::::::::::::::::::::::::::::::::::::
         :: total energy             -82.719415457766 Eh    ::
         :: gradient norm              0.125092043085 Eh/a0 ::
         :: HOMO-LUMO gap              1.687854929016 eV    ::
         ::.................................................::
         :: SCC energy               -84.067204223380 Eh    ::
         :: -> isotropic ES            0.059860038994 Eh    ::
         :: -> anisotropic ES          0.010115698808 Eh    ::
         :: -> anisotropic XC          0.043560344377 Eh    ::
         :: -> dispersion             -0.075282047124 Eh    ::
         :: repulsion energy           1.347788765614 Eh    ::
         :: add. restraining           0.000000000000 Eh    ::
         :: total charge               0.000000000000 e     ::
         :::::::::::::::::::::::::::::::::::::::::::::::::::::

           -------------------------------------------------
          |                Property Printout                |
           -------------------------------------------------

    * Orbital Energies and Occupations

         #    Occupation            Energy/Eh            Energy/eV
      -------------------------------------------------------------
         1        2.0000           -0.8031188             -21.8540
       ...           ...                  ...                  ...
        64        2.0000           -0.4116295             -11.2010
        65        2.0000           -0.4069899             -11.0748
        66        2.0000           -0.4053159             -11.0292
        67        2.0000           -0.4000944             -10.8871
        68        2.0000           -0.3974287             -10.8146
        69        2.0000           -0.3952680             -10.7558
        70        2.0000           -0.3902089             -10.6181
        71        2.0000           -0.3821063             -10.3976
        72        2.0000           -0.3727751             -10.1437
        73        2.0000           -0.3658873              -9.9563
        74        2.0000           -0.3542084              -9.6385
        75        2.0000           -0.3315118              -9.0209
        76        2.0000           -0.3227367              -8.7821 (HOMO)
        77                         -0.2607091              -7.0943 (LUMO)
        78                         -0.2588130              -7.0427
        79                         -0.2581468              -7.0245
        80                         -0.2551008              -6.9416
        81                         -0.2390871              -6.5059
        82                         -0.2347683              -6.3884
        83                         -0.2233700              -6.0782
        84                         -0.2170587              -5.9065
        85                         -0.2133277              -5.8049
        86                         -0.1995204              -5.4292
        87                         -0.1947932              -5.3006
       ...                                ...                  ...
       144                          1.7296443              47.0660
      -------------------------------------------------------------
                  HL-Gap            0.0620275 Eh            1.6879 eV
             Fermi-level           -0.2917229 Eh           -7.9382 eV

     #   Z          covCN         q      C6AA      α(0)
     1   6 C        2.915    -0.040    29.000     8.831
     2   6 C        2.934    -0.009    28.232     8.714
     3   6 C        2.912    -0.033    28.829     8.804
     4   6 C        2.852     0.119    25.369     8.255
     5   7 N        2.621    -0.058    22.375     7.025
     6   6 C        2.889     0.046    26.976     8.515
     7   6 C        2.850     0.115    25.461     8.270
     8   6 C        2.912    -0.034    28.844     8.807
     9   6 C        2.933    -0.009    28.254     8.717
    10   6 C        2.914    -0.040    29.005     8.831
    11   6 C        2.888     0.044    27.016     8.521
    12   7 N        2.622    -0.043    22.077     6.978
    13   1 H        0.926     0.043     2.404     2.424
    14   1 H        0.926     0.045     2.384     2.415
    15   1 H        0.926     0.049     2.337     2.391
    16   1 H        0.925     0.047     2.360     2.402
    17   1 H        0.926     0.049     2.329     2.386
    18   1 H        0.926     0.045     2.383     2.414
    19   1 H        0.926     0.044     2.401     2.423
    20   1 H        0.925     0.050     2.319     2.381
    21   1 H        0.925     0.037     2.494     2.470
    22  28 Ni       5.387    -0.571   263.541    31.384
    23   6 C        3.675     0.127    18.723     6.200
    24   7 N        2.330    -0.160    24.664     7.373
    25   1 H        0.923     0.054     2.273     2.358
    26   1 H        0.926     0.041     2.437     2.441
    27   6 C        2.967     0.006    27.887     8.662
    28   6 C        1.732     0.453    21.748     7.545
    29   6 C        2.928    -0.034    28.851     8.809
    30   6 C        2.907     0.090    25.994     8.360
    31   8 O        1.560    -0.096    15.849     5.371
    32   6 C        2.918    -0.032    28.804     8.801
    33   8 O        0.856    -0.244    18.796     5.813
    34   6 C        2.923    -0.054    29.334     8.882
    35   1 H        0.926     0.017     2.779     2.607
    36   1 H        0.926     0.019     2.742     2.590
    37   1 H        0.925     0.032     2.562     2.503
    38   6 C        2.922    -0.028    28.703     8.786
    39   1 H        0.926     0.031     2.577     2.510
    40   6 C        2.918    -0.030    28.738     8.791
    41   6 C        2.919    -0.031    28.777     8.797
    42   6 C        2.918    -0.034    28.856     8.809
    43   1 H        0.926     0.033     2.548     2.496
    44   1 H        0.926     0.017     2.785     2.610
    45   6 C        2.920    -0.031    28.770     8.796
    46   6 C        2.919    -0.047    29.161     8.855
    47   6 C        2.924    -0.044    29.084     8.844
    48   1 H        0.925     0.018     2.762     2.599
    49   1 H        0.926     0.032     2.558     2.501

 Mol. C6AA /au·bohr⁶  :      37760.177789
 Mol. C8AA /au·bohr⁸  :    1064678.742866
 Mol. α(0) /au        :        316.068820


Wiberg/Mayer (AO) data.
largest (>0.10) Wiberg bond orders for each atom

 ---------------------------------------------------------------------------
     #   Z sym  total        # sym  WBO       # sym  WBO       # sym  WBO
 ---------------------------------------------------------------------------
     1   6 C    3.988 --     2 C    1.431     6 C    1.430    13 H    0.967
                             4 C    0.106
     2   6 C    3.986 --     3 C    1.439     1 C    1.431    14 H    0.965
     3   6 C    3.987 --     2 C    1.439     4 C    1.357    15 H    0.966
                             6 C    0.115
     4   6 C    3.895 --     5 N    1.409     3 C    1.357    22 Ni   0.741
                             1 C    0.106
     5   7 N    3.463 --     4 C    1.409     6 C    1.387    22 Ni   0.417
     6   6 C    3.977 --     1 C    1.430     5 N    1.387    16 H    0.961
                             3 C    0.115
     7   6 C    3.890 --    12 N    1.407     8 C    1.366    22 Ni   0.740
                            10 C    0.108
     8   6 C    3.985 --     9 C    1.431     7 C    1.366    17 H    0.966
                            11 C    0.115
     9   6 C    3.986 --    10 C    1.439     8 C    1.431    18 H    0.965
    10   6 C    3.987 --     9 C    1.439    11 C    1.423    19 H    0.967
                             7 C    0.108
    11   6 C    3.976 --    10 C    1.423    12 N    1.397    20 H    0.962
                             8 C    0.115
    12   7 N    3.480 --     7 C    1.407    11 C    1.397    22 Ni   0.426
    13   1 H    0.995 --     1 C    0.967
    14   1 H    0.993 --     2 C    0.965
    15   1 H    0.998 --     3 C    0.966
    16   1 H    0.998 --     6 C    0.961
    17   1 H    0.997 --     8 C    0.966
    18   1 H    0.993 --     9 C    0.965
    19   1 H    0.995 --    10 C    0.967
    20   1 H    0.997 --    11 C    0.962
    21   1 H    0.999 --    47 C    0.952
    22  28 Ni   4.068 --     4 C    0.741     7 C    0.740    23 C    0.447
                            12 N    0.426     5 N    0.417    24 N    0.370
                            31 O    0.350
    23   6 C    3.980 --    24 N    1.455    27 C    1.001    25 H    0.893
                            22 Ni   0.447
    24   7 N    3.315 --    23 C    1.455    30 C    1.149    22 Ni   0.370
    25   1 H    0.995 --    23 C    0.893
    26   1 H    0.998 --    38 C    0.960
    27   6 C    3.985 --    38 C    1.382    29 C    1.372    23 C    1.001
                            45 C    0.103
    28   6 C    3.935 --    33 O    1.936    31 O    1.876
    29   6 C    3.988 --    40 C    1.462    27 C    1.372    37 H    0.966
                            41 C    0.106
    30   6 C    3.975 --    47 C    1.333    34 C    1.316    24 N    1.149
    31   8 O    2.627 --    28 C    1.876    33 O    0.365    22 Ni   0.350
    32   6 C    3.991 --    34 C    1.468    46 C    1.421    36 H    0.970
                            47 C    0.101
    33   8 O    2.346 --    28 C    1.936    31 O    0.365
    34   6 C    3.983 --    32 C    1.468    30 C    1.316    35 H    0.971
                            42 C    0.102
    35   1 H    1.000 --    34 C    0.971
    36   1 H    0.999 --    32 C    0.970
    37   1 H    0.999 --    29 C    0.966
    38   6 C    3.990 --    41 C    1.449    27 C    1.382    26 H    0.960
                            40 C    0.105
    39   1 H    0.999 --    41 C    0.971
    40   6 C    3.992 --    29 C    1.462    45 C    1.426    43 H    0.971
                            38 C    0.105
    41   6 C    3.992 --    38 C    1.449    45 C    1.436    39 H    0.971
                            29 C    0.106
    42   6 C    3.992 --    47 C    1.463    46 C    1.426    48 H    0.971
                            34 C    0.102
    43   1 H    0.998 --    40 C    0.971
    44   1 H    1.000 --    46 C    0.972
    45   6 C    3.980 --    41 C    1.436    40 C    1.426    49 H    0.971
                            27 C    0.103
    46   6 C    3.981 --    42 C    1.426    32 C    1.421    44 H    0.972
    47   6 C    3.985 --    42 C    1.463    30 C    1.333    21 H    0.952
                            32 C    0.101
    48   1 H    0.998 --    42 C    0.971
    49   1 H    0.998 --    45 C    0.971
 ---------------------------------------------------------------------------

Topologies differ in total number of bonds
Writing topology from bond orders to xtbtopo.mol

molecular dipole:
                 x           y           z       tot (Debye)
 q only:        0.987       0.488       1.411
   full:        1.029       0.720       1.291       4.579
molecular quadrupole (traceless):
                xx          xy          yy          xz          yz          zz
 q only:      -13.092      15.081     -10.485       1.471      18.889      23.577
  q+dip:      -13.150      15.303     -14.853       0.243      19.169      28.003
   full:      -14.996      15.164      -7.209      -1.782      20.182      22.206


           -------------------------------------------------
          | TOTAL ENERGY              -82.719415457766 Eh   |
          | GRADIENT NORM               0.125092043085 Eh/α |
          | HOMO-LUMO GAP               1.687854929016 eV   |
           -------------------------------------------------

------------------------------------------------------------------------
 * finished run on 2026/01/15 at 09:37:11.712     
------------------------------------------------------------------------
 total:
 * wall-time:     0 d,  0 h,  0 min,  0.131 sec
 *  cpu-time:     0 d,  0 h,  0 min,  1.578 sec
 * ratio c/w:    12.049 speedup
 SCF:
 * wall-time:     0 d,  0 h,  0 min,  0.114 sec
 *  cpu-time:     0 d,  0 h,  0 min,  1.389 sec
 * ratio c/w:    12.207 speedup

