      -----------------------------------------------------------      
     |                   =====================                   |     
     |                           x T B                           |     
     |                   =====================                   |     
     |                         S. Grimme                         |     
     |          Mulliken Center for Theoretical Chemistry        |     
     |                    University of Bonn                     |     
      -----------------------------------------------------------      

   * xtb version 6.7.0 (08769fc) compiled by 'albert@albert-system' on 2024-03-04

   xtb is free software: you can redistribute it and/or modify it under
   the terms of the GNU Lesser General Public License as published by
   the Free Software Foundation, either version 3 of the License, or
   (at your option) any later version.
   
   xtb is distributed in the hope that it will be useful,
   but WITHOUT ANY WARRANTY; without even the implied warranty of
   MERCHANTABILITY or FITNESS FOR A PARTICULAR PURPOSE.  See the
   GNU Lesser General Public License for more details.
   
   Cite this work as:
   * C. Bannwarth, E. Caldeweyher, S. Ehlert, A. Hansen, P. Pracht,
     J. Seibert, S. Spicher, S. Grimme, WIREs Comput. Mol. Sci., 2020, 11,
     e01493. DOI: 10.1002/wcms.1493
   
   for GFN2-xTB:
   * C. Bannwarth, S. Ehlert and S. Grimme., J. Chem. Theory Comput., 2019,
     15, 1652-1671. DOI: 10.1021/acs.jctc.8b01176
   for GFN1-xTB:
   * S. Grimme, C. Bannwarth, P. Shushkov, J. Chem. Theory Comput., 2017,
     13, 1989-2009. DOI: 10.1021/acs.jctc.7b00118
   for GFN0-xTB:
   * P. Pracht, E. Caldeweyher, S. Ehlert, S. Grimme, ChemRxiv, 2019, preprint.
     DOI: 10.26434/chemrxiv.8326202.v1
   for GFN-FF:
   * S. Spicher and S. Grimme, Angew. Chem. Int. Ed., 2020, 59, 15665-15673.
     DOI: 10.1002/anie.202004239
   
   for ALPB and GBSA implicit solvation:
   * S. Ehlert, M. Stahn, S. Spicher, S. Grimme, J. Chem. Theory Comput.,
     2021, 17, 4250-4261. DOI: 10.1021/acs.jctc.1c00471
   
   for ddCOSMO and CPCM-X implicit solvation:
   * M. Stahn, S. Ehlert, S. Grimme, J. Phys. Chem. A,
     2023, XX, XXXX-XXXX. DOI: 10.1021/acs.jpca.3c04382
   
   for DFT-D4:
   * E. Caldeweyher, C. Bannwarth and S. Grimme, J. Chem. Phys., 2017,
     147, 034112. DOI: 10.1063/1.4993215
   * E. Caldeweyher, S. Ehlert, A. Hansen, H. Neugebauer, S. Spicher,
     C. Bannwarth and S. Grimme, J. Chem. Phys., 2019, 150, 154122.
     DOI: 10.1063/1.5090222
   * E. Caldeweyher, J.-M. Mewes, S. Ehlert and S. Grimme, Phys. Chem. Chem. Phys.
     2020, 22, 8499-8512. DOI: 10.1039/D0CP00502A
   
   for sTDA-xTB:
   * S. Grimme and C. Bannwarth, J. Chem. Phys., 2016, 145, 054103.
     DOI: 10.1063/1.4959605
   
   in the mass-spec context:
   * V. Asgeirsson, C. Bauer and S. Grimme, Chem. Sci., 2017, 8, 4879.
     DOI: 10.1039/c7sc00601b
   * J. Koopman and S. Grimme, ACS Omega 2019, 4, 12, 15120-15133.
     DOI: 10.1021/acsomega.9b02011
   
   for metadynamics refer to:
   * S. Grimme, J. Chem. Theory Comput., 2019, 155, 2847-2862
     DOI: 10.1021/acs.jctc.9b00143
   
   for SPH calculations refer to:
   * S. Spicher and S. Grimme, J. Chem. Theory Comput., 2021, 17, 1701-1714
     DOI: 10.1021/acs.jctc.0c01306
   
   for ONIOM refer to:
   * C. Plett, A. Katbashev, S. Ehlert, S. Grimme, M. Bursch,
     Phys. Chem. Chem. Phys., 2023, 25, 17860-17868. DOI: 10.1039/D3CP02178E
   
   for DIPRO refer to:
   * J. Kohn, N. Gildemeister, S. Grimme, D. Fazzi, A. Hansen,
     J. Chem. Phys., 2023, just accepted.
   
   for PTB refer to:
   * S. Grimme, M. Mueller, A. Hansen, J. Chem. Phys., 2023, 158, 124111.
     DOI: 10.1063/5.0137838
   
   with help from (in alphabetical order)
   P. Atkinson, C. Bannwarth, F. Bohle, G. Brandenburg, E. Caldeweyher
   M. Checinski, S. Dohm, S. Ehlert, S. Ehrlich, I. Gerasimov, C. Hölzer
   A. Katbashev, J. Kohn, J. Koopman, C. Lavigne, S. Lehtola, F. März, M. Müller,
   F. Musil, H. Neugebauer, J. Pisarek, C. Plett, P. Pracht, F. Pultar,
   J. Seibert, P. Shushkov, S. Spicher, M. Stahn, M. Steiner, T. Strunk,
   J. Stückrath, T. Rose, and J. Unsleber
   
 * started run on 2026/01/15 at 09:37:10.065     
   ID    Z sym.   atoms
    1    6 C      1-4, 6-11, 23, 27-30, 32, 34, 38, 40-42, 45-47
    2    7 N      5, 12, 24
    3    1 H      13-21, 25, 26, 35-37, 39, 43, 44, 48, 49
    4   28 Ni     22
    5    8 O      31, 33

           -------------------------------------------------
          |                Calculation Setup                |
           -------------------------------------------------

          program call               : xtb isomer1_embed_27.xyz --sp
          coordinate file            : isomer1_embed_27.xyz
          omp threads                :                    16


molecular fragmentation (1/2 indicates fragments):
1111111111111111111111111112112121111111111111111
# atoms in fragment 1/2:    46     3
 fragment masses (1/2) :      396.11       44.01
CMA distance (Bohr)    :   7.808
constraining FC (au)   :  0.0500

           -------------------------------------------------
          |                 G F N 2 - x T B                 |
           -------------------------------------------------

        Reference                      10.1021/acs.jctc.8b01176
      * Hamiltonian:
        H0-scaling (s, p, d)           1.850000    2.230000    2.230000
        zeta-weighting                 0.500000
      * Dispersion:
        s8                             2.700000
        a1                             0.520000
        a2                             5.000000
        s9                             5.000000
      * Repulsion:
        kExp                           1.500000    1.000000
        rExp                           1.000000
      * Coulomb:
        alpha                          2.000000
        third order                    shell-resolved
        anisotropic                    true
        a3                             3.000000
        a5                             4.000000
        cn-shift                       1.200000
        cn-exp                         4.000000
        max-rad                        5.000000

q/qsh data taken from xtbrestart
CAMM data taken from xtbrestart

          ...................................................
          :                      SETUP                      :
          :.................................................:
          :  # basis functions                 145          :
          :  # atomic orbitals                 144          :
          :  # shells                           80          :
          :  # electrons                       152          :
          :  max. iterations                   250          :
          :  Hamiltonian                  GFN2-xTB          :
          :  restarted?                       true          :
          :  GBSA solvation                  false          :
          :  PC potential                    false          :
          :  electronic temp.          300.0000000     K    :
          :  accuracy                    1.0000000          :
          :  -> integral cutoff          0.2500000E+02      :
          :  -> integral neglect         0.1000000E-07      :
          :  -> SCF convergence          0.1000000E-05 Eh   :
          :  -> wf. convergence          0.1000000E-03 e    :
          :  Broyden damping             0.4000000          :
          :  net charge                          0          :
          :  unpaired electrons                  0          :
          ...................................................

 iter      E             dE          RMSdq      gap      omega  full diag
   1    -84.0367611 -0.840368E+02  0.535E+00    1.49       0.0  T
   2    -84.0525234 -0.157623E-01  0.327E+00    1.66       1.0  T
   3    -83.9522169  0.100306E+00  0.137E+00    1.35       1.0  T
   4    -84.0655316 -0.113315E+00  0.457E-01    1.63       1.0  T
   5    -84.0683963 -0.286475E-02  0.278E-01    1.68       1.0  T
   6    -84.0689893 -0.592999E-03  0.150E-01    1.67       1.0  T
   7    -84.0693453 -0.355934E-03  0.870E-02    1.67       1.0  T
   8    -84.0694374 -0.921481E-04  0.547E-02    1.68       1.0  T
   9    -84.0694903 -0.528390E-04  0.294E-02    1.67       1.0  T
  10    -84.0695011 -0.108556E-04  0.136E-02    1.68       1.0  T
  11    -84.0695024 -0.124311E-05  0.626E-03    1.67       2.3  T
  12    -84.0695026 -0.200590E-06  0.320E-03    1.67       4.5  T
  13    -84.0695027 -0.179669E-06  0.122E-03    1.67      11.7  T
  14    -84.0695028 -0.372503E-07  0.726E-04    1.67      19.7  T
  15    -84.0695028 -0.518969E-08  0.338E-04    1.67      42.3  T

   *** convergence criteria satisfied after 15 iterations ***

         #    Occupation            Energy/Eh            Energy/eV
      -------------------------------------------------------------
         1        2.0000           -0.8046022             -21.8943
       ...           ...                  ...                  ...
        70        2.0000           -0.3899327             -10.6106
        71        2.0000           -0.3817978             -10.3892
        72        2.0000           -0.3724589             -10.1351
        73        2.0000           -0.3655583              -9.9473
        74        2.0000           -0.3538663              -9.6292
        75        2.0000           -0.3310404              -9.0081
        76        2.0000           -0.3221781              -8.7669 (HOMO)
        77                         -0.2606876              -7.0937 (LUMO)
        78                         -0.2596362              -7.0651
        79                         -0.2574415              -7.0053
        80                         -0.2544309              -6.9234
        81                         -0.2398477              -6.5266
       ...                                ...                  ...
       144                          1.7213705              46.8409
      -------------------------------------------------------------
                  HL-Gap            0.0614905 Eh            1.6732 eV
             Fermi-level           -0.2914329 Eh           -7.9303 eV

 SCC (total)                   0 d,  0 h,  0 min,  0.064 sec
 SCC setup                      ...        0 min,  0.001 sec (  0.859%)
 Dispersion                     ...        0 min,  0.001 sec (  1.427%)
 classical contributions        ...        0 min,  0.000 sec (  0.156%)
 integral evaluation            ...        0 min,  0.005 sec (  8.126%)
 iterations                     ...        0 min,  0.050 sec ( 78.068%)
 molecular gradient             ...        0 min,  0.007 sec ( 10.634%)
 printout                       ...        0 min,  0.000 sec (  0.655%)

         :::::::::::::::::::::::::::::::::::::::::::::::::::::
         ::                     SUMMARY                     ::
         :::::::::::::::::::::::::::::::::::::::::::::::::::::
         :: total energy             -82.719183822005 Eh    ::
         :: gradient norm              0.124902416003 Eh/a0 ::
         :: HOMO-LUMO gap              1.673240743850 eV    ::
         ::.................................................::
         :: SCC energy               -84.067391829278 Eh    ::
         :: -> isotropic ES            0.059135572252 Eh    ::
         :: -> anisotropic ES          0.010683826000 Eh    ::
         :: -> anisotropic XC          0.044009783956 Eh    ::
         :: -> dispersion             -0.075084700998 Eh    ::
         :: repulsion energy           1.348208007273 Eh    ::
         :: add. restraining           0.000000000000 Eh    ::
         :: total charge               0.000000000000 e     ::
         :::::::::::::::::::::::::::::::::::::::::::::::::::::

           -------------------------------------------------
          |                Property Printout                |
           -------------------------------------------------

    * Orbital Energies and Occupations

         #    Occupation            Energy/Eh            Energy/eV
      -------------------------------------------------------------
         1        2.0000           -0.8046022             -21.8943
       ...           ...                  ...                  ...
        64        2.0000           -0.4115362             -11.1985
        65        2.0000           -0.4066036             -11.0642
        66        2.0000           -0.4051552             -11.0248
        67        2.0000           -0.3997571             -10.8779
        68        2.0000           -0.3969426             -10.8014
        69        2.0000           -0.3949291             -10.7466
        70        2.0000           -0.3899327             -10.6106
        71        2.0000           -0.3817978             -10.3892
        72        2.0000           -0.3724589             -10.1351
        73        2.0000           -0.3655583              -9.9473
        74        2.0000           -0.3538663              -9.6292
        75        2.0000           -0.3310404              -9.0081
        76        2.0000           -0.3221781              -8.7669 (HOMO)
        77                         -0.2606876              -7.0937 (LUMO)
        78                         -0.2596362              -7.0651
        79                         -0.2574415              -7.0053
        80                         -0.2544309              -6.9234
        81                         -0.2398477              -6.5266
        82                         -0.2343315              -6.3765
        83                         -0.2232200              -6.0741
        84                         -0.2188066              -5.9540
        85                         -0.2151897              -5.8556
        86                         -0.1991627              -5.4195
        87                         -0.1948785              -5.3029
       ...                                ...                  ...
       144                          1.7213705              46.8409
      -------------------------------------------------------------
                  HL-Gap            0.0614905 Eh            1.6732 eV
             Fermi-level           -0.2914329 Eh           -7.9303 eV

     #   Z          covCN         q      C6AA      α(0)
     1   6 C        2.915    -0.040    28.999     8.830
     2   6 C        2.934    -0.009    28.237     8.715
     3   6 C        2.912    -0.033    28.824     8.804
     4   6 C        2.854     0.121    25.341     8.251
     5   7 N        2.622    -0.043    22.080     6.979
     6   6 C        2.890     0.045    26.987     8.517
     7   6 C        2.849     0.109    25.589     8.291
     8   6 C        2.912    -0.035    28.870     8.811
     9   6 C        2.932    -0.010    28.257     8.718
    10   6 C        2.914    -0.041    29.009     8.832
    11   6 C        2.888     0.044    27.007     8.520
    12   7 N        2.622    -0.053    22.278     7.010
    13   1 H        0.926     0.044     2.398     2.422
    14   1 H        0.926     0.045     2.380     2.413
    15   1 H        0.926     0.048     2.339     2.391
    16   1 H        0.925     0.049     2.336     2.390
    17   1 H        0.926     0.048     2.348     2.396
    18   1 H        0.926     0.044     2.391     2.418
    19   1 H        0.926     0.043     2.404     2.425
    20   1 H        0.925     0.050     2.322     2.383
    21   1 H        0.925     0.039     2.459     2.452
    22  28 Ni       5.375    -0.570   263.596    31.394
    23   6 C        3.675     0.127    18.729     6.201
    24   7 N        2.330    -0.158    24.638     7.369
    25   1 H        0.923     0.054     2.268     2.355
    26   1 H        0.926     0.041     2.436     2.441
    27   6 C        2.967     0.006    27.891     8.663
    28   6 C        1.721     0.447    21.867     7.568
    29   6 C        2.928    -0.034    28.850     8.809
    30   6 C        2.907     0.090    25.998     8.361
    31   8 O        1.560    -0.090    15.763     5.357
    32   6 C        2.918    -0.032    28.805     8.801
    33   8 O        0.856    -0.243    18.792     5.812
    34   6 C        2.923    -0.054    29.339     8.883
    35   1 H        0.926     0.017     2.782     2.608
    36   1 H        0.926     0.019     2.746     2.591
    37   1 H        0.925     0.032     2.564     2.504
    38   6 C        2.922    -0.028    28.711     8.787
    39   1 H        0.926     0.031     2.576     2.510
    40   6 C        2.918    -0.030    28.739     8.791
    41   6 C        2.919    -0.031    28.777     8.797
    42   6 C        2.918    -0.035    28.862     8.810
    43   1 H        0.926     0.033     2.549     2.497
    44   1 H        0.926     0.016     2.790     2.612
    45   6 C        2.920    -0.031    28.771     8.796
    46   6 C        2.919    -0.047    29.167     8.856
    47   6 C        2.924    -0.044    29.101     8.847
    48   1 H        0.925     0.017     2.779     2.607
    49   1 H        0.926     0.032     2.559     2.502

 Mol. C6AA /au·bohr⁶  :      37762.337178
 Mol. C8AA /au·bohr⁸  :    1064803.252549
 Mol. α(0) /au        :        316.093770


Wiberg/Mayer (AO) data.
largest (>0.10) Wiberg bond orders for each atom

 ---------------------------------------------------------------------------
     #   Z sym  total        # sym  WBO       # sym  WBO       # sym  WBO
 ---------------------------------------------------------------------------
     1   6 C    3.987 --     2 C    1.432     6 C    1.429    13 H    0.967
                             4 C    0.107
     2   6 C    3.986 --     3 C    1.438     1 C    1.432    14 H    0.965
     3   6 C    3.987 --     2 C    1.438     4 C    1.357    15 H    0.966
                             6 C    0.115
     4   6 C    3.898 --     5 N    1.414     3 C    1.357    22 Ni   0.743
                             1 C    0.107
     5   7 N    3.477 --     4 C    1.414     6 C    1.388    22 Ni   0.422
     6   6 C    3.977 --     1 C    1.429     5 N    1.388    16 H    0.961
                             3 C    0.115
     7   6 C    3.886 --    12 N    1.405     8 C    1.366    22 Ni   0.735
                            10 C    0.108
     8   6 C    3.986 --     9 C    1.431     7 C    1.366    17 H    0.966
                            11 C    0.115
     9   6 C    3.986 --    10 C    1.439     8 C    1.431    18 H    0.965
    10   6 C    3.987 --     9 C    1.439    11 C    1.423    19 H    0.967
                             7 C    0.108
    11   6 C    3.976 --    10 C    1.423    12 N    1.398    20 H    0.962
                             8 C    0.115
    12   7 N    3.471 --     7 C    1.405    11 C    1.398    22 Ni   0.422
    13   1 H    0.995 --     1 C    0.967
    14   1 H    0.993 --     2 C    0.965
    15   1 H    0.998 --     3 C    0.966
    16   1 H    0.998 --     6 C    0.961
    17   1 H    0.998 --     8 C    0.966
    18   1 H    0.993 --     9 C    0.965
    19   1 H    0.995 --    10 C    0.967
    20   1 H    0.997 --    11 C    0.962
    21   1 H    0.998 --    47 C    0.951
    22  28 Ni   4.077 --     4 C    0.743     7 C    0.735    23 C    0.450
                            12 N    0.422     5 N    0.422    24 N    0.373
                            31 O    0.357
    23   6 C    3.980 --    24 N    1.454    27 C    1.001    25 H    0.893
                            22 Ni   0.450
    24   7 N    3.317 --    23 C    1.454    30 C    1.150    22 Ni   0.373
    25   1 H    0.995 --    23 C    0.893
    26   1 H    0.998 --    38 C    0.960
    27   6 C    3.985 --    38 C    1.381    29 C    1.372    23 C    1.001
                            45 C    0.103
    28   6 C    3.936 --    33 O    1.935    31 O    1.880
    29   6 C    3.988 --    40 C    1.462    27 C    1.372    37 H    0.966
                            41 C    0.106
    30   6 C    3.975 --    47 C    1.333    34 C    1.316    24 N    1.150
    31   8 O    2.639 --    28 C    1.880    33 O    0.365    22 Ni   0.357
    32   6 C    3.991 --    34 C    1.468    46 C    1.421    36 H    0.970
                            47 C    0.101
    33   8 O    2.346 --    28 C    1.935    31 O    0.365
    34   6 C    3.984 --    32 C    1.468    30 C    1.316    35 H    0.971
                            42 C    0.102
    35   1 H    1.000 --    34 C    0.971
    36   1 H    0.999 --    32 C    0.970
    37   1 H    0.999 --    29 C    0.966
    38   6 C    3.990 --    41 C    1.450    27 C    1.381    26 H    0.960
                            40 C    0.105
    39   1 H    0.999 --    41 C    0.971
    40   6 C    3.992 --    29 C    1.462    45 C    1.426    43 H    0.971
                            38 C    0.105
    41   6 C    3.992 --    38 C    1.450    45 C    1.436    39 H    0.971
                            29 C    0.106
    42   6 C    3.992 --    47 C    1.463    46 C    1.425    48 H    0.971
                            34 C    0.102
    43   1 H    0.998 --    40 C    0.971
    44   1 H    1.000 --    46 C    0.973
    45   6 C    3.980 --    41 C    1.436    40 C    1.426    49 H    0.971
                            27 C    0.103
    46   6 C    3.981 --    42 C    1.425    32 C    1.421    44 H    0.973
    47   6 C    3.985 --    42 C    1.463    30 C    1.333    21 H    0.951
                            32 C    0.101
    48   1 H    0.999 --    42 C    0.971
    49   1 H    0.998 --    45 C    0.971
 ---------------------------------------------------------------------------

Topologies differ in total number of bonds
Writing topology from bond orders to xtbtopo.mol

molecular dipole:
                 x           y           z       tot (Debye)
 q only:       -0.654      -0.874      -1.353
   full:       -0.450      -0.970      -1.428       4.534
molecular quadrupole (traceless):
                xx          xy          yy          xz          yz          zz
 q only:      -14.903      14.436      10.486      -8.383      21.147       4.417
  q+dip:      -13.224      19.533      10.665      -8.336      20.677       2.559
   full:      -13.444      13.859      12.842     -11.472      21.735       0.603


           -------------------------------------------------
          | TOTAL ENERGY              -82.719183822005 Eh   |
          | GRADIENT NORM               0.124902416003 Eh/α |
          | HOMO-LUMO GAP               1.673240743850 eV   |
           -------------------------------------------------

------------------------------------------------------------------------
 * finished run on 2026/01/15 at 09:37:10.146     
------------------------------------------------------------------------
 total:
 * wall-time:     0 d,  0 h,  0 min,  0.080 sec
 *  cpu-time:     0 d,  0 h,  0 min,  1.161 sec
 * ratio c/w:    14.522 speedup
 SCF:
 * wall-time:     0 d,  0 h,  0 min,  0.065 sec
 *  cpu-time:     0 d,  0 h,  0 min,  0.981 sec
 * ratio c/w:    15.191 speedup

