      -----------------------------------------------------------      
     |                   =====================                   |     
     |                           x T B                           |     
     |                   =====================                   |     
     |                         S. Grimme                         |     
     |          Mulliken Center for Theoretical Chemistry        |     
     |                    University of Bonn                     |     
      -----------------------------------------------------------      

   * xtb version 6.7.0 (08769fc) compiled by 'albert@albert-system' on 2024-03-04

   xtb is free software: you can redistribute it and/or modify it under
   the terms of the GNU Lesser General Public License as published by
   the Free Software Foundation, either version 3 of the License, or
   (at your option) any later version.
   
   xtb is distributed in the hope that it will be useful,
   but WITHOUT ANY WARRANTY; without even the implied warranty of
   MERCHANTABILITY or FITNESS FOR A PARTICULAR PURPOSE.  See the
   GNU Lesser General Public License for more details.
   
   Cite this work as:
   * C. Bannwarth, E. Caldeweyher, S. Ehlert, A. Hansen, P. Pracht,
     J. Seibert, S. Spicher, S. Grimme, WIREs Comput. Mol. Sci., 2020, 11,
     e01493. DOI: 10.1002/wcms.1493
   
   for GFN2-xTB:
   * C. Bannwarth, S. Ehlert and S. Grimme., J. Chem. Theory Comput., 2019,
     15, 1652-1671. DOI: 10.1021/acs.jctc.8b01176
   for GFN1-xTB:
   * S. Grimme, C. Bannwarth, P. Shushkov, J. Chem. Theory Comput., 2017,
     13, 1989-2009. DOI: 10.1021/acs.jctc.7b00118
   for GFN0-xTB:
   * P. Pracht, E. Caldeweyher, S. Ehlert, S. Grimme, ChemRxiv, 2019, preprint.
     DOI: 10.26434/chemrxiv.8326202.v1
   for GFN-FF:
   * S. Spicher and S. Grimme, Angew. Chem. Int. Ed., 2020, 59, 15665-15673.
     DOI: 10.1002/anie.202004239
   
   for ALPB and GBSA implicit solvation:
   * S. Ehlert, M. Stahn, S. Spicher, S. Grimme, J. Chem. Theory Comput.,
     2021, 17, 4250-4261. DOI: 10.1021/acs.jctc.1c00471
   
   for ddCOSMO and CPCM-X implicit solvation:
   * M. Stahn, S. Ehlert, S. Grimme, J. Phys. Chem. A,
     2023, XX, XXXX-XXXX. DOI: 10.1021/acs.jpca.3c04382
   
   for DFT-D4:
   * E. Caldeweyher, C. Bannwarth and S. Grimme, J. Chem. Phys., 2017,
     147, 034112. DOI: 10.1063/1.4993215
   * E. Caldeweyher, S. Ehlert, A. Hansen, H. Neugebauer, S. Spicher,
     C. Bannwarth and S. Grimme, J. Chem. Phys., 2019, 150, 154122.
     DOI: 10.1063/1.5090222
   * E. Caldeweyher, J.-M. Mewes, S. Ehlert and S. Grimme, Phys. Chem. Chem. Phys.
     2020, 22, 8499-8512. DOI: 10.1039/D0CP00502A
   
   for sTDA-xTB:
   * S. Grimme and C. Bannwarth, J. Chem. Phys., 2016, 145, 054103.
     DOI: 10.1063/1.4959605
   
   in the mass-spec context:
   * V. Asgeirsson, C. Bauer and S. Grimme, Chem. Sci., 2017, 8, 4879.
     DOI: 10.1039/c7sc00601b
   * J. Koopman and S. Grimme, ACS Omega 2019, 4, 12, 15120-15133.
     DOI: 10.1021/acsomega.9b02011
   
   for metadynamics refer to:
   * S. Grimme, J. Chem. Theory Comput., 2019, 155, 2847-2862
     DOI: 10.1021/acs.jctc.9b00143
   
   for SPH calculations refer to:
   * S. Spicher and S. Grimme, J. Chem. Theory Comput., 2021, 17, 1701-1714
     DOI: 10.1021/acs.jctc.0c01306
   
   for ONIOM refer to:
   * C. Plett, A. Katbashev, S. Ehlert, S. Grimme, M. Bursch,
     Phys. Chem. Chem. Phys., 2023, 25, 17860-17868. DOI: 10.1039/D3CP02178E
   
   for DIPRO refer to:
   * J. Kohn, N. Gildemeister, S. Grimme, D. Fazzi, A. Hansen,
     J. Chem. Phys., 2023, just accepted.
   
   for PTB refer to:
   * S. Grimme, M. Mueller, A. Hansen, J. Chem. Phys., 2023, 158, 124111.
     DOI: 10.1063/5.0137838
   
   with help from (in alphabetical order)
   P. Atkinson, C. Bannwarth, F. Bohle, G. Brandenburg, E. Caldeweyher
   M. Checinski, S. Dohm, S. Ehlert, S. Ehrlich, I. Gerasimov, C. Hölzer
   A. Katbashev, J. Kohn, J. Koopman, C. Lavigne, S. Lehtola, F. März, M. Müller,
   F. Musil, H. Neugebauer, J. Pisarek, C. Plett, P. Pracht, F. Pultar,
   J. Seibert, P. Shushkov, S. Spicher, M. Stahn, M. Steiner, T. Strunk,
   J. Stückrath, T. Rose, and J. Unsleber
   
 * started run on 2026/01/15 at 09:37:10.248     
   ID    Z sym.   atoms
    1    6 C      1-4, 6-11, 23, 27-30, 32, 34, 38, 40-42, 45-47
    2    7 N      5, 12, 24
    3    1 H      13-21, 25, 26, 35-37, 39, 43, 44, 48, 49
    4   28 Ni     22
    5    8 O      31, 33

           -------------------------------------------------
          |                Calculation Setup                |
           -------------------------------------------------

          program call               : xtb isomer1_embed_29.xyz --sp
          coordinate file            : isomer1_embed_29.xyz
          omp threads                :                    16


molecular fragmentation (1/2 indicates fragments):
1111111111111111111111111112112121111111111111111
# atoms in fragment 1/2:    46     3
 fragment masses (1/2) :      396.11       44.01
CMA distance (Bohr)    :   7.681
constraining FC (au)   :  0.0500

           -------------------------------------------------
          |                 G F N 2 - x T B                 |
           -------------------------------------------------

        Reference                      10.1021/acs.jctc.8b01176
      * Hamiltonian:
        H0-scaling (s, p, d)           1.850000    2.230000    2.230000
        zeta-weighting                 0.500000
      * Dispersion:
        s8                             2.700000
        a1                             0.520000
        a2                             5.000000
        s9                             5.000000
      * Repulsion:
        kExp                           1.500000    1.000000
        rExp                           1.000000
      * Coulomb:
        alpha                          2.000000
        third order                    shell-resolved
        anisotropic                    true
        a3                             3.000000
        a5                             4.000000
        cn-shift                       1.200000
        cn-exp                         4.000000
        max-rad                        5.000000

q/qsh data taken from xtbrestart
CAMM data taken from xtbrestart

          ...................................................
          :                      SETUP                      :
          :.................................................:
          :  # basis functions                 145          :
          :  # atomic orbitals                 144          :
          :  # shells                           80          :
          :  # electrons                       152          :
          :  max. iterations                   250          :
          :  Hamiltonian                  GFN2-xTB          :
          :  restarted?                       true          :
          :  GBSA solvation                  false          :
          :  PC potential                    false          :
          :  electronic temp.          300.0000000     K    :
          :  accuracy                    1.0000000          :
          :  -> integral cutoff          0.2500000E+02      :
          :  -> integral neglect         0.1000000E-07      :
          :  -> SCF convergence          0.1000000E-05 Eh   :
          :  -> wf. convergence          0.1000000E-03 e    :
          :  Broyden damping             0.4000000          :
          :  net charge                          0          :
          :  unpaired electrons                  0          :
          ...................................................

 iter      E             dE          RMSdq      gap      omega  full diag
   1    -84.0299925 -0.840300E+02  0.614E+00    1.67       0.0  T
   2    -84.0418443 -0.118517E-01  0.378E+00    1.81       1.0  T
   3    -83.9985562  0.432881E-01  0.969E-01    1.38       1.0  T
   4    -84.0459712 -0.474150E-01  0.478E-01    1.70       1.0  T
   5    -84.0483887 -0.241747E-02  0.310E-01    1.72       1.0  T
   6    -84.0497580 -0.136935E-02  0.132E-01    1.71       1.0  T
   7    -84.0501726 -0.414565E-03  0.687E-02    1.70       1.0  T
   8    -84.0501986 -0.260199E-04  0.471E-02    1.69       1.0  T
   9    -84.0502208 -0.221864E-04  0.267E-02    1.69       1.0  T
  10    -84.0502294 -0.859100E-05  0.162E-02    1.69       1.0  T
  11    -84.0502340 -0.462873E-05  0.817E-03    1.69       1.7  T
  12    -84.0502346 -0.605219E-06  0.328E-03    1.69       4.4  T
  13    -84.0502348 -0.226031E-06  0.152E-03    1.69       9.4  T
  14    -84.0502349 -0.331206E-07  0.810E-04    1.69      17.6  T
  15    -84.0502349 -0.841050E-08  0.424E-04    1.69      33.7  T

   *** convergence criteria satisfied after 15 iterations ***

         #    Occupation            Energy/Eh            Energy/eV
      -------------------------------------------------------------
         1        2.0000           -0.8035884             -21.8668
       ...           ...                  ...                  ...
        70        2.0000           -0.3850291             -10.4772
        71        2.0000           -0.3797039             -10.3323
        72        2.0000           -0.3723747             -10.1328
        73        2.0000           -0.3659791              -9.9588
        74        2.0000           -0.3497100              -9.5161
        75        2.0000           -0.3334664              -9.0741
        76        2.0000           -0.3228008              -8.7839 (HOMO)
        77                         -0.2607666              -7.0958 (LUMO)
        78                         -0.2585814              -7.0364
        79                         -0.2564571              -6.9786
        80                         -0.2537993              -6.9062
        81                         -0.2386839              -6.4949
       ...                                ...                  ...
       144                          1.7584689              47.8504
      -------------------------------------------------------------
                  HL-Gap            0.0620342 Eh            1.6880 eV
             Fermi-level           -0.2917837 Eh           -7.9398 eV

 SCC (total)                   0 d,  0 h,  0 min,  0.091 sec
 SCC setup                      ...        0 min,  0.000 sec (  0.479%)
 Dispersion                     ...        0 min,  0.001 sec (  0.875%)
 classical contributions        ...        0 min,  0.000 sec (  0.070%)
 integral evaluation            ...        0 min,  0.005 sec (  5.550%)
 iterations                     ...        0 min,  0.077 sec ( 85.105%)
 molecular gradient             ...        0 min,  0.007 sec (  7.405%)
 printout                       ...        0 min,  0.000 sec (  0.464%)

         :::::::::::::::::::::::::::::::::::::::::::::::::::::
         ::                     SUMMARY                     ::
         :::::::::::::::::::::::::::::::::::::::::::::::::::::
         :: total energy             -82.706614307593 Eh    ::
         :: gradient norm              0.126704082304 Eh/a0 ::
         :: HOMO-LUMO gap              1.688036678581 eV    ::
         ::.................................................::
         :: SCC energy               -84.048085747241 Eh    ::
         :: -> isotropic ES            0.060604330777 Eh    ::
         :: -> anisotropic ES          0.009111325316 Eh    ::
         :: -> anisotropic XC          0.043335828534 Eh    ::
         :: -> dispersion             -0.073310900132 Eh    ::
         :: repulsion energy           1.341471439648 Eh    ::
         :: add. restraining           0.000000000000 Eh    ::
         :: total charge               0.000000000000 e     ::
         :::::::::::::::::::::::::::::::::::::::::::::::::::::

           -------------------------------------------------
          |                Property Printout                |
           -------------------------------------------------

    * Orbital Energies and Occupations

         #    Occupation            Energy/Eh            Energy/eV
      -------------------------------------------------------------
         1        2.0000           -0.8035884             -21.8668
       ...           ...                  ...                  ...
        64        2.0000           -0.4118251             -11.2063
        65        2.0000           -0.4093216             -11.1382
        66        2.0000           -0.3993602             -10.8671
        67        2.0000           -0.3989005             -10.8546
        68        2.0000           -0.3973503             -10.8125
        69        2.0000           -0.3898404             -10.6081
        70        2.0000           -0.3850291             -10.4772
        71        2.0000           -0.3797039             -10.3323
        72        2.0000           -0.3723747             -10.1328
        73        2.0000           -0.3659791              -9.9588
        74        2.0000           -0.3497100              -9.5161
        75        2.0000           -0.3334664              -9.0741
        76        2.0000           -0.3228008              -8.7839 (HOMO)
        77                         -0.2607666              -7.0958 (LUMO)
        78                         -0.2585814              -7.0364
        79                         -0.2564571              -6.9786
        80                         -0.2537993              -6.9062
        81                         -0.2386839              -6.4949
        82                         -0.2363543              -6.4315
        83                         -0.2175392              -5.9195
        84                         -0.2174666              -5.9176
        85                         -0.2147620              -5.8440
        86                         -0.2058438              -5.6013
        87                         -0.2018977              -5.4939
       ...                                ...                  ...
       144                          1.7584689              47.8504
      -------------------------------------------------------------
                  HL-Gap            0.0620342 Eh            1.6880 eV
             Fermi-level           -0.2917837 Eh           -7.9398 eV

     #   Z          covCN         q      C6AA      α(0)
     1   6 C        2.915    -0.040    28.991     8.829
     2   6 C        2.933    -0.009    28.246     8.716
     3   6 C        2.912    -0.032    28.808     8.801
     4   6 C        2.849     0.121    25.335     8.249
     5   7 N        2.622    -0.052    22.263     7.008
     6   6 C        2.888     0.048    26.925     8.507
     7   6 C        2.847     0.110    25.569     8.287
     8   6 C        2.912    -0.034    28.836     8.805
     9   6 C        2.932    -0.009    28.249     8.717
    10   6 C        2.915    -0.040    29.003     8.831
    11   6 C        2.887     0.044    27.022     8.522
    12   7 N        2.623    -0.048    22.190     6.996
    13   1 H        0.926     0.043     2.404     2.425
    14   1 H        0.926     0.046     2.376     2.411
    15   1 H        0.926     0.050     2.319     2.381
    16   1 H        0.925     0.046     2.373     2.409
    17   1 H        0.926     0.048     2.342     2.393
    18   1 H        0.926     0.045     2.380     2.413
    19   1 H        0.926     0.043     2.405     2.425
    20   1 H        0.925     0.049     2.337     2.391
    21   1 H        0.926     0.019     2.746     2.591
    22  28 Ni       5.304    -0.551   263.487    31.429
    23   6 C        3.670     0.123    18.795     6.215
    24   7 N        2.255    -0.201    25.732     7.530
    25   1 H        0.922     0.063     2.165     2.301
    26   1 H        0.926     0.045     2.387     2.416
    27   6 C        2.965     0.001    28.005     8.680
    28   6 C        1.730     0.453    21.754     7.547
    29   6 C        2.925    -0.029    28.713     8.787
    30   6 C        2.905     0.092    25.955     8.354
    31   8 O        1.561    -0.099    15.888     5.378
    32   6 C        2.917    -0.033    28.816     8.803
    33   8 O        0.856    -0.243    18.788     5.811
    34   6 C        2.935    -0.041    29.018     8.835
    35   1 H        0.926     0.042     2.419     2.432
    36   1 H        0.926     0.023     2.685     2.562
    37   1 H        0.926     0.039     2.464     2.455
    38   6 C        2.924    -0.039    28.966     8.826
    39   1 H        0.926     0.028     2.610     2.527
    40   6 C        2.919    -0.031    28.767     8.795
    41   6 C        2.919    -0.031    28.782     8.798
    42   6 C        2.918    -0.035    28.874     8.812
    43   1 H        0.926     0.032     2.563     2.503
    44   1 H        0.926     0.020     2.731     2.584
    45   6 C        2.919    -0.033    28.817     8.803
    46   6 C        2.919    -0.039    28.975     8.827
    47   6 C        2.919    -0.048    29.188     8.859
    48   1 H        0.925     0.016     2.795     2.614
    49   1 H        0.926     0.029     2.597     2.520

 Mol. C6AA /au·bohr⁶  :      37760.781706
 Mol. C8AA /au·bohr⁸  :    1064929.385246
 Mol. α(0) /au        :        316.111902


Wiberg/Mayer (AO) data.
largest (>0.10) Wiberg bond orders for each atom

 ---------------------------------------------------------------------------
     #   Z sym  total        # sym  WBO       # sym  WBO       # sym  WBO
 ---------------------------------------------------------------------------
     1   6 C    3.987 --     6 C    1.435     2 C    1.427    13 H    0.967
                             4 C    0.106
     2   6 C    3.986 --     3 C    1.444     1 C    1.427    14 H    0.965
     3   6 C    3.986 --     2 C    1.444     4 C    1.350    15 H    0.965
                             6 C    0.117
     4   6 C    3.895 --     5 N    1.421     3 C    1.350    22 Ni   0.746
                             1 C    0.106
     5   7 N    3.471 --     4 C    1.421     6 C    1.378    22 Ni   0.421
     6   6 C    3.977 --     1 C    1.435     5 N    1.378    16 H    0.962
                             3 C    0.117
     7   6 C    3.878 --    12 N    1.399     8 C    1.369    22 Ni   0.742
                            10 C    0.108
     8   6 C    3.985 --     9 C    1.429     7 C    1.369    17 H    0.966
                            11 C    0.114
     9   6 C    3.984 --    10 C    1.440     8 C    1.429    18 H    0.965
    10   6 C    3.986 --     9 C    1.440    11 C    1.422    19 H    0.967
                             7 C    0.108
    11   6 C    3.976 --    10 C    1.422    12 N    1.399    20 H    0.962
                             8 C    0.114
    12   7 N    3.479 --    11 C    1.399     7 C    1.399    22 Ni   0.431
    13   1 H    0.995 --     1 C    0.967
    14   1 H    0.993 --     2 C    0.965
    15   1 H    0.997 --     3 C    0.965
    16   1 H    0.998 --     6 C    0.962
    17   1 H    0.997 --     8 C    0.966
    18   1 H    0.993 --     9 C    0.965
    19   1 H    0.995 --    10 C    0.967
    20   1 H    0.997 --    11 C    0.962
    21   1 H    1.000 --    47 C    0.962
    22  28 Ni   4.081 --     4 C    0.746     7 C    0.742    23 C    0.482
                            12 N    0.431     5 N    0.421    24 N    0.346
                            31 O    0.344
    23   6 C    3.981 --    24 N    1.436    27 C    0.972    25 H    0.874
                            22 Ni   0.482
    24   7 N    3.156 --    23 C    1.436    30 C    1.128    22 Ni   0.346
    25   1 H    0.995 --    23 C    0.874
    26   1 H    0.998 --    38 C    0.954
    27   6 C    3.986 --    38 C    1.394    29 C    1.390    23 C    0.972
                            45 C    0.109
    28   6 C    3.934 --    33 O    1.938    31 O    1.877
    29   6 C    3.990 --    40 C    1.446    27 C    1.390    37 H    0.967
                            41 C    0.108
    30   6 C    3.980 --    34 C    1.337    47 C    1.334    24 N    1.128
    31   8 O    2.623 --    28 C    1.877    33 O    0.365    22 Ni   0.344
    32   6 C    3.991 --    34 C    1.473    46 C    1.418    36 H    0.971
    33   8 O    2.345 --    28 C    1.938    31 O    0.365
    34   6 C    3.982 --    32 C    1.473    30 C    1.337    35 H    0.968
                            42 C    0.101
    35   1 H    0.998 --    34 C    0.968
    36   1 H    0.999 --    32 C    0.971
    37   1 H    0.998 --    29 C    0.967
    38   6 C    3.988 --    41 C    1.450    27 C    1.394    26 H    0.954
                            40 C    0.108
    39   1 H    0.999 --    41 C    0.971
    40   6 C    3.990 --    29 C    1.446    45 C    1.436    43 H    0.970
                            38 C    0.108
    41   6 C    3.992 --    38 C    1.450    45 C    1.433    39 H    0.971
                            29 C    0.108
    42   6 C    3.992 --    47 C    1.458    46 C    1.429    48 H    0.971
                            34 C    0.101
    43   1 H    0.998 --    40 C    0.970
    44   1 H    0.999 --    46 C    0.972
    45   6 C    3.986 --    40 C    1.436    41 C    1.433    49 H    0.971
                            27 C    0.109
    46   6 C    3.964 --    42 C    1.429    32 C    1.418    44 H    0.972
    47   6 C    3.984 --    42 C    1.458    30 C    1.334    21 H    0.962
    48   1 H    1.000 --    42 C    0.971
    49   1 H    0.998 --    45 C    0.971
 ---------------------------------------------------------------------------

Topologies differ in total number of bonds
Writing topology from bond orders to xtbtopo.mol

molecular dipole:
                 x           y           z       tot (Debye)
 q only:       -0.072       1.343      -0.788
   full:        0.342       1.339      -0.822       4.087
molecular quadrupole (traceless):
                xx          xy          yy          xz          yz          zz
 q only:      -14.537      18.242       1.201       1.524     -21.572      13.335
  q+dip:      -17.544      20.287       1.571       1.757     -21.285      15.973
   full:      -10.314      21.349      -5.487      -1.859     -21.003      15.802


           -------------------------------------------------
          | TOTAL ENERGY              -82.706614307593 Eh   |
          | GRADIENT NORM               0.126704082304 Eh/α |
          | HOMO-LUMO GAP               1.688036678581 eV   |
           -------------------------------------------------

------------------------------------------------------------------------
 * finished run on 2026/01/15 at 09:37:10.357     
------------------------------------------------------------------------
 total:
 * wall-time:     0 d,  0 h,  0 min,  0.109 sec
 *  cpu-time:     0 d,  0 h,  0 min,  1.614 sec
 * ratio c/w:    14.874 speedup
 SCF:
 * wall-time:     0 d,  0 h,  0 min,  0.091 sec
 *  cpu-time:     0 d,  0 h,  0 min,  1.389 sec
 * ratio c/w:    15.239 speedup

