      -----------------------------------------------------------      
     |                   =====================                   |     
     |                           x T B                           |     
     |                   =====================                   |     
     |                         S. Grimme                         |     
     |          Mulliken Center for Theoretical Chemistry        |     
     |                    University of Bonn                     |     
      -----------------------------------------------------------      

   * xtb version 6.7.0 (08769fc) compiled by 'albert@albert-system' on 2024-03-04

   xtb is free software: you can redistribute it and/or modify it under
   the terms of the GNU Lesser General Public License as published by
   the Free Software Foundation, either version 3 of the License, or
   (at your option) any later version.
   
   xtb is distributed in the hope that it will be useful,
   but WITHOUT ANY WARRANTY; without even the implied warranty of
   MERCHANTABILITY or FITNESS FOR A PARTICULAR PURPOSE.  See the
   GNU Lesser General Public License for more details.
   
   Cite this work as:
   * C. Bannwarth, E. Caldeweyher, S. Ehlert, A. Hansen, P. Pracht,
     J. Seibert, S. Spicher, S. Grimme, WIREs Comput. Mol. Sci., 2020, 11,
     e01493. DOI: 10.1002/wcms.1493
   
   for GFN2-xTB:
   * C. Bannwarth, S. Ehlert and S. Grimme., J. Chem. Theory Comput., 2019,
     15, 1652-1671. DOI: 10.1021/acs.jctc.8b01176
   for GFN1-xTB:
   * S. Grimme, C. Bannwarth, P. Shushkov, J. Chem. Theory Comput., 2017,
     13, 1989-2009. DOI: 10.1021/acs.jctc.7b00118
   for GFN0-xTB:
   * P. Pracht, E. Caldeweyher, S. Ehlert, S. Grimme, ChemRxiv, 2019, preprint.
     DOI: 10.26434/chemrxiv.8326202.v1
   for GFN-FF:
   * S. Spicher and S. Grimme, Angew. Chem. Int. Ed., 2020, 59, 15665-15673.
     DOI: 10.1002/anie.202004239
   
   for ALPB and GBSA implicit solvation:
   * S. Ehlert, M. Stahn, S. Spicher, S. Grimme, J. Chem. Theory Comput.,
     2021, 17, 4250-4261. DOI: 10.1021/acs.jctc.1c00471
   
   for ddCOSMO and CPCM-X implicit solvation:
   * M. Stahn, S. Ehlert, S. Grimme, J. Phys. Chem. A,
     2023, XX, XXXX-XXXX. DOI: 10.1021/acs.jpca.3c04382
   
   for DFT-D4:
   * E. Caldeweyher, C. Bannwarth and S. Grimme, J. Chem. Phys., 2017,
     147, 034112. DOI: 10.1063/1.4993215
   * E. Caldeweyher, S. Ehlert, A. Hansen, H. Neugebauer, S. Spicher,
     C. Bannwarth and S. Grimme, J. Chem. Phys., 2019, 150, 154122.
     DOI: 10.1063/1.5090222
   * E. Caldeweyher, J.-M. Mewes, S. Ehlert and S. Grimme, Phys. Chem. Chem. Phys.
     2020, 22, 8499-8512. DOI: 10.1039/D0CP00502A
   
   for sTDA-xTB:
   * S. Grimme and C. Bannwarth, J. Chem. Phys., 2016, 145, 054103.
     DOI: 10.1063/1.4959605
   
   in the mass-spec context:
   * V. Asgeirsson, C. Bauer and S. Grimme, Chem. Sci., 2017, 8, 4879.
     DOI: 10.1039/c7sc00601b
   * J. Koopman and S. Grimme, ACS Omega 2019, 4, 12, 15120-15133.
     DOI: 10.1021/acsomega.9b02011
   
   for metadynamics refer to:
   * S. Grimme, J. Chem. Theory Comput., 2019, 155, 2847-2862
     DOI: 10.1021/acs.jctc.9b00143
   
   for SPH calculations refer to:
   * S. Spicher and S. Grimme, J. Chem. Theory Comput., 2021, 17, 1701-1714
     DOI: 10.1021/acs.jctc.0c01306
   
   for ONIOM refer to:
   * C. Plett, A. Katbashev, S. Ehlert, S. Grimme, M. Bursch,
     Phys. Chem. Chem. Phys., 2023, 25, 17860-17868. DOI: 10.1039/D3CP02178E
   
   for DIPRO refer to:
   * J. Kohn, N. Gildemeister, S. Grimme, D. Fazzi, A. Hansen,
     J. Chem. Phys., 2023, just accepted.
   
   for PTB refer to:
   * S. Grimme, M. Mueller, A. Hansen, J. Chem. Phys., 2023, 158, 124111.
     DOI: 10.1063/5.0137838
   
   with help from (in alphabetical order)
   P. Atkinson, C. Bannwarth, F. Bohle, G. Brandenburg, E. Caldeweyher
   M. Checinski, S. Dohm, S. Ehlert, S. Ehrlich, I. Gerasimov, C. Hölzer
   A. Katbashev, J. Kohn, J. Koopman, C. Lavigne, S. Lehtola, F. März, M. Müller,
   F. Musil, H. Neugebauer, J. Pisarek, C. Plett, P. Pracht, F. Pultar,
   J. Seibert, P. Shushkov, S. Spicher, M. Stahn, M. Steiner, T. Strunk,
   J. Stückrath, T. Rose, and J. Unsleber
   
 * started run on 2026/01/15 at 09:37:08.870     
   ID    Z sym.   atoms
    1    6 C      1-4, 6-11, 23, 27-30, 32, 34, 38, 40-42, 45-47
    2    7 N      5, 12, 24
    3    1 H      13-21, 25, 26, 35-37, 39, 43, 44, 48, 49
    4   28 Ni     22
    5    8 O      31, 33

           -------------------------------------------------
          |                Calculation Setup                |
           -------------------------------------------------

          program call               : xtb isomer1_embed_17.xyz --sp
          coordinate file            : isomer1_embed_17.xyz
          omp threads                :                    16


           -------------------------------------------------
          |                 G F N 2 - x T B                 |
           -------------------------------------------------

        Reference                      10.1021/acs.jctc.8b01176
      * Hamiltonian:
        H0-scaling (s, p, d)           1.850000    2.230000    2.230000
        zeta-weighting                 0.500000
      * Dispersion:
        s8                             2.700000
        a1                             0.520000
        a2                             5.000000
        s9                             5.000000
      * Repulsion:
        kExp                           1.500000    1.000000
        rExp                           1.000000
      * Coulomb:
        alpha                          2.000000
        third order                    shell-resolved
        anisotropic                    true
        a3                             3.000000
        a5                             4.000000
        cn-shift                       1.200000
        cn-exp                         4.000000
        max-rad                        5.000000

q/qsh data taken from xtbrestart
CAMM data taken from xtbrestart

          ...................................................
          :                      SETUP                      :
          :.................................................:
          :  # basis functions                 145          :
          :  # atomic orbitals                 144          :
          :  # shells                           80          :
          :  # electrons                       152          :
          :  max. iterations                   250          :
          :  Hamiltonian                  GFN2-xTB          :
          :  restarted?                       true          :
          :  GBSA solvation                  false          :
          :  PC potential                    false          :
          :  electronic temp.          300.0000000     K    :
          :  accuracy                    1.0000000          :
          :  -> integral cutoff          0.2500000E+02      :
          :  -> integral neglect         0.1000000E-07      :
          :  -> SCF convergence          0.1000000E-05 Eh   :
          :  -> wf. convergence          0.1000000E-03 e    :
          :  Broyden damping             0.4000000          :
          :  net charge                          0          :
          :  unpaired electrons                  0          :
          ...................................................

 iter      E             dE          RMSdq      gap      omega  full diag
   1    -84.0865678 -0.840866E+02  0.610E+00    0.67       0.0  T
   2    -84.0965163 -0.994853E-02  0.378E+00    0.57       1.0  T
   3    -84.0453555  0.511608E-01  0.990E-01    0.73       1.0  T
   4    -84.1017455 -0.563900E-01  0.537E-01    0.55       1.0  T
   5    -84.1034203 -0.167483E-02  0.269E-01    0.63       1.0  T
   6    -84.1043086 -0.888310E-03  0.135E-01    0.54       1.0  T
   7    -84.1046953 -0.386671E-03  0.516E-02    0.60       1.0  T
   8    -84.1047134 -0.181373E-04  0.338E-02    0.58       1.0  T
   9    -84.1047342 -0.207476E-04  0.110E-02    0.59       1.3  T
  10    -84.1047368 -0.262567E-05  0.507E-03    0.59       2.8  T
  11    -84.1047369 -0.136856E-06  0.259E-03    0.59       5.5  T
  12    -84.1047370 -0.901944E-07  0.841E-04    0.59      17.0  T
  13    -84.1047370 -0.209277E-07  0.382E-04    0.59      37.4  T

   *** convergence criteria satisfied after 13 iterations ***

         #    Occupation            Energy/Eh            Energy/eV
      -------------------------------------------------------------
         1        2.0000           -0.7124332             -19.3863
       ...           ...                  ...                  ...
        70        2.0000           -0.3778451             -10.2817
        71        2.0000           -0.3741210             -10.1804
        72        2.0000           -0.3736746             -10.1682
        73        2.0000           -0.3644527              -9.9173
        74        2.0000           -0.3607213              -9.8157
        75        2.0000           -0.3538761              -9.6295
        76        2.0000           -0.3397143              -9.2441 (HOMO)
        77        0.0000           -0.3181739              -8.6580 (LUMO)
        78                         -0.2879370              -7.8352
        79                         -0.2823205              -7.6823
        80                         -0.2554929              -6.9523
        81                         -0.2422108              -6.5909
       ...                                ...                  ...
       144                          1.5504011              42.1886
      -------------------------------------------------------------
                  HL-Gap            0.0215403 Eh            0.5861 eV
             Fermi-level           -0.3289441 Eh           -8.9510 eV

 SCC (total)                   0 d,  0 h,  0 min,  0.058 sec
 SCC setup                      ...        0 min,  0.000 sec (  0.618%)
 Dispersion                     ...        0 min,  0.001 sec (  1.440%)
 classical contributions        ...        0 min,  0.000 sec (  0.121%)
 integral evaluation            ...        0 min,  0.005 sec (  9.203%)
 iterations                     ...        0 min,  0.044 sec ( 76.705%)
 molecular gradient             ...        0 min,  0.006 sec ( 11.069%)
 printout                       ...        0 min,  0.000 sec (  0.770%)

         :::::::::::::::::::::::::::::::::::::::::::::::::::::
         ::                     SUMMARY                     ::
         :::::::::::::::::::::::::::::::::::::::::::::::::::::
         :: total energy             -82.831492064475 Eh    ::
         :: gradient norm              0.024621631313 Eh/a0 ::
         :: HOMO-LUMO gap              0.586142664950 eV    ::
         ::.................................................::
         :: SCC energy               -84.103566905607 Eh    ::
         :: -> isotropic ES            0.095356021705 Eh    ::
         :: -> anisotropic ES          0.001609899802 Eh    ::
         :: -> anisotropic XC          0.035495271194 Eh    ::
         :: -> dispersion             -0.068058120967 Eh    ::
         :: repulsion energy           1.272074841132 Eh    ::
         :: add. restraining           0.000000000000 Eh    ::
         :: total charge               0.000000000008 e     ::
         :::::::::::::::::::::::::::::::::::::::::::::::::::::

           -------------------------------------------------
          |                Property Printout                |
           -------------------------------------------------

    * Orbital Energies and Occupations

         #    Occupation            Energy/Eh            Energy/eV
      -------------------------------------------------------------
         1        2.0000           -0.7124332             -19.3863
       ...           ...                  ...                  ...
        64        2.0000           -0.4056764             -11.0390
        65        2.0000           -0.4041222             -10.9967
        66        2.0000           -0.4031439             -10.9701
        67        2.0000           -0.4011609             -10.9161
        68        2.0000           -0.3912691             -10.6470
        69        2.0000           -0.3782158             -10.2918
        70        2.0000           -0.3778451             -10.2817
        71        2.0000           -0.3741210             -10.1804
        72        2.0000           -0.3736746             -10.1682
        73        2.0000           -0.3644527              -9.9173
        74        2.0000           -0.3607213              -9.8157
        75        2.0000           -0.3538761              -9.6295
        76        2.0000           -0.3397143              -9.2441 (HOMO)
        77        0.0000           -0.3181739              -8.6580 (LUMO)
        78                         -0.2879370              -7.8352
        79                         -0.2823205              -7.6823
        80                         -0.2554929              -6.9523
        81                         -0.2422108              -6.5909
        82                         -0.2198621              -5.9828
        83                         -0.2103098              -5.7228
        84                         -0.1953631              -5.3161
        85                         -0.1942703              -5.2864
        86                         -0.1646564              -4.4805
        87                         -0.1322319              -3.5982
       ...                                ...                  ...
       144                          1.5504011              42.1886
      -------------------------------------------------------------
                  HL-Gap            0.0215403 Eh            0.5861 eV
             Fermi-level           -0.3289441 Eh           -8.9510 eV

     #   Z          covCN         q      C6AA      α(0)
     1   6 C        2.917    -0.031    28.784     8.798
     2   6 C        2.923    -0.010    28.269     8.719
     3   6 C        2.919    -0.037    28.910     8.817
     4   6 C        3.005     0.081    26.189     8.395
     5   7 N        2.639    -0.017    21.589     6.901
     6   6 C        2.896     0.045    26.979     8.516
     7   6 C        2.991     0.078    26.248     8.404
     8   6 C        2.916    -0.036    28.907     8.817
     9   6 C        2.924    -0.008    28.226     8.713
    10   6 C        2.915    -0.029    28.721     8.788
    11   6 C        2.890     0.057    26.714     8.474
    12   7 N        2.646     0.004    21.203     6.839
    13   1 H        0.926     0.060     2.199     2.319
    14   1 H        0.926     0.056     2.250     2.346
    15   1 H        0.926     0.053     2.279     2.361
    16   1 H        0.926     0.088     1.899     2.155
    17   1 H        0.926     0.049     2.337     2.391
    18   1 H        0.926     0.053     2.284     2.363
    19   1 H        0.926     0.060     2.193     2.316
    20   1 H        0.925     0.117     1.639     2.002
    21   1 H        0.926     0.060     2.198     2.319
    22  28 Ni       3.350    -0.284   189.200    28.381
    23   6 C        3.693     0.041    20.056     6.408
    24   7 N        2.752    -0.124    23.689     7.229
    25   1 H        0.922     0.054     2.273     2.358
    26   1 H        0.925     0.027     2.636     2.539
    27   6 C        2.984     0.023    27.475     8.598
    28   6 C        2.671     0.414    20.021     7.322
    29   6 C        2.925    -0.024    28.593     8.769
    30   6 C        2.910     0.074    26.353     8.418
    31   8 O        1.600    -0.328    19.535     5.965
    32   6 C        2.920    -0.033    28.831     8.805
    33   8 O        0.857    -0.475    23.237     6.463
    34   6 C        2.924    -0.052    29.303     8.877
    35   1 H        0.926     0.024     2.668     2.554
    36   1 H        0.926     0.022     2.703     2.571
    37   1 H        0.925     0.060     2.195     2.317
    38   6 C        2.922    -0.041    29.009     8.832
    39   1 H        0.926     0.029     2.600     2.521
    40   6 C        2.918    -0.031    28.767     8.795
    41   6 C        2.918    -0.032    28.802     8.801
    42   6 C        2.920    -0.029    28.735     8.791
    43   1 H        0.926     0.031     2.571     2.507
    44   1 H        0.926     0.023     2.692     2.566
    45   6 C        2.920    -0.034    28.845     8.807
    46   6 C        2.918    -0.042    29.032     8.836
    47   6 C        2.924    -0.045    29.111     8.848
    48   1 H        0.926     0.029     2.599     2.521
    49   1 H        0.926     0.029     2.600     2.521

 Mol. C6AA /au·bohr⁶  :      36676.060949
 Mol. C8AA /au·bohr⁸  :    1015954.104543
 Mol. α(0) /au        :        312.672534


Wiberg/Mayer (AO) data.
largest (>0.10) Wiberg bond orders for each atom

 ---------------------------------------------------------------------------
     #   Z sym  total        # sym  WBO       # sym  WBO       # sym  WBO
 ---------------------------------------------------------------------------
     1   6 C    3.977 --     6 C    1.435     2 C    1.417    13 H    0.968
     2   6 C    3.980 --     3 C    1.446     1 C    1.417    14 H    0.968
     3   6 C    3.989 --     2 C    1.446     4 C    1.388    15 H    0.962
     4   6 C    3.978 --     3 C    1.388     5 N    1.288     7 C    1.060
     5   7 N    3.542 --     6 C    1.384     4 C    1.288    22 Ni   0.605
     6   6 C    3.972 --     1 C    1.435     5 N    1.384    16 H    0.938
     7   6 C    3.979 --     8 C    1.380    12 N    1.306     4 C    1.060
     8   6 C    3.989 --     9 C    1.447     7 C    1.380    17 H    0.963
                            11 C    0.101
     9   6 C    3.986 --     8 C    1.447    10 C    1.427    18 H    0.969
    10   6 C    3.977 --     9 C    1.427    11 C    1.420    19 H    0.968
    11   6 C    3.965 --    10 C    1.420    12 N    1.401    20 H    0.936
                             8 C    0.101
    12   7 N    3.532 --    11 C    1.401     7 C    1.306    22 Ni   0.557
    13   1 H    0.996 --     1 C    0.968
    14   1 H    0.996 --     2 C    0.968
    15   1 H    0.997 --     3 C    0.962
    16   1 H    0.992 --     6 C    0.938
    17   1 H    0.997 --     8 C    0.963
    18   1 H    0.996 --     9 C    0.969
    19   1 H    0.996 --    10 C    0.968
    20   1 H    0.986 --    11 C    0.936
    21   1 H    0.996 --    47 C    0.964
    22  28 Ni   3.534 --    23 C    0.859    31 O    0.783     5 N    0.605
                            12 N    0.557
    23   6 C    3.931 --    27 C    0.992    24 N    0.940    25 H    0.887
                            22 Ni   0.859
    24   7 N    3.477 --    28 C    1.079    30 C    1.074    23 C    0.940
                            33 O    0.126
    25   1 H    0.995 --    23 C    0.887
    26   1 H    0.999 --    38 C    0.964
    27   6 C    3.988 --    38 C    1.386    29 C    1.367    23 C    0.992
                            45 C    0.104
    28   6 C    3.943 --    33 O    1.603    31 O    1.174    24 N    1.079
    29   6 C    3.992 --    40 C    1.460    27 C    1.367    37 H    0.937
                            41 C    0.108
    30   6 C    3.966 --    34 C    1.366    47 C    1.361    24 N    1.074
    31   8 O    2.349 --    28 C    1.174    22 Ni   0.783    33 O    0.136
    32   6 C    3.992 --    34 C    1.453    46 C    1.433    36 H    0.972
                            47 C    0.107
    33   8 O    1.970 --    28 C    1.603    31 O    0.136    24 N    0.126
    34   6 C    3.986 --    32 C    1.453    30 C    1.366    35 H    0.964
                            42 C    0.104
    35   1 H    0.999 --    34 C    0.964
    36   1 H    0.999 --    32 C    0.972
    37   1 H    0.996 --    29 C    0.937
    38   6 C    3.986 --    41 C    1.442    27 C    1.386    26 H    0.964
                            40 C    0.105
    39   1 H    0.998 --    41 C    0.971
    40   6 C    3.992 --    29 C    1.460    45 C    1.425    43 H    0.971
                            38 C    0.105
    41   6 C    3.991 --    38 C    1.442    45 C    1.441    39 H    0.971
                            29 C    0.108
    42   6 C    3.991 --    47 C    1.460    46 C    1.427    48 H    0.971
                            34 C    0.104
    43   1 H    0.999 --    40 C    0.971
    44   1 H    0.999 --    46 C    0.972
    45   6 C    3.987 --    41 C    1.441    40 C    1.425    49 H    0.972
                            27 C    0.104
    46   6 C    3.986 --    32 C    1.433    42 C    1.427    44 H    0.972
    47   6 C    3.985 --    42 C    1.460    30 C    1.361    21 H    0.964
                            32 C    0.107
    48   1 H    0.999 --    42 C    0.971
    49   1 H    0.999 --    45 C    0.972
 ---------------------------------------------------------------------------

Topologies differ in total number of bonds
Writing topology from bond orders to xtbtopo.mol

molecular dipole:
                 x           y           z       tot (Debye)
 q only:        4.486       1.282       0.863
   full:        5.119       1.611       1.113      13.930
molecular quadrupole (traceless):
                xx          xy          yy          xz          yz          zz
 q only:       34.604      75.088     -12.013      50.717      35.975     -22.592
  q+dip:       36.091      88.007     -14.637      58.188      47.821     -21.453
   full:       35.421      87.749     -11.640      60.522      42.575     -23.781


           -------------------------------------------------
          | TOTAL ENERGY              -82.831492064475 Eh   |
          | GRADIENT NORM               0.024621631313 Eh/α |
          | HOMO-LUMO GAP               0.586142664950 eV   |
           -------------------------------------------------

------------------------------------------------------------------------
 * finished run on 2026/01/15 at 09:37:08.947     
------------------------------------------------------------------------
 total:
 * wall-time:     0 d,  0 h,  0 min,  0.076 sec
 *  cpu-time:     0 d,  0 h,  0 min,  1.137 sec
 * ratio c/w:    14.933 speedup
 SCF:
 * wall-time:     0 d,  0 h,  0 min,  0.059 sec
 *  cpu-time:     0 d,  0 h,  0 min,  0.920 sec
 * ratio c/w:    15.542 speedup

