      -----------------------------------------------------------      
     |                   =====================                   |     
     |                           x T B                           |     
     |                   =====================                   |     
     |                         S. Grimme                         |     
     |          Mulliken Center for Theoretical Chemistry        |     
     |                    University of Bonn                     |     
      -----------------------------------------------------------      

   * xtb version 6.7.0 (08769fc) compiled by 'albert@albert-system' on 2024-03-04

   xtb is free software: you can redistribute it and/or modify it under
   the terms of the GNU Lesser General Public License as published by
   the Free Software Foundation, either version 3 of the License, or
   (at your option) any later version.
   
   xtb is distributed in the hope that it will be useful,
   but WITHOUT ANY WARRANTY; without even the implied warranty of
   MERCHANTABILITY or FITNESS FOR A PARTICULAR PURPOSE.  See the
   GNU Lesser General Public License for more details.
   
   Cite this work as:
   * C. Bannwarth, E. Caldeweyher, S. Ehlert, A. Hansen, P. Pracht,
     J. Seibert, S. Spicher, S. Grimme, WIREs Comput. Mol. Sci., 2020, 11,
     e01493. DOI: 10.1002/wcms.1493
   
   for GFN2-xTB:
   * C. Bannwarth, S. Ehlert and S. Grimme., J. Chem. Theory Comput., 2019,
     15, 1652-1671. DOI: 10.1021/acs.jctc.8b01176
   for GFN1-xTB:
   * S. Grimme, C. Bannwarth, P. Shushkov, J. Chem. Theory Comput., 2017,
     13, 1989-2009. DOI: 10.1021/acs.jctc.7b00118
   for GFN0-xTB:
   * P. Pracht, E. Caldeweyher, S. Ehlert, S. Grimme, ChemRxiv, 2019, preprint.
     DOI: 10.26434/chemrxiv.8326202.v1
   for GFN-FF:
   * S. Spicher and S. Grimme, Angew. Chem. Int. Ed., 2020, 59, 15665-15673.
     DOI: 10.1002/anie.202004239
   
   for ALPB and GBSA implicit solvation:
   * S. Ehlert, M. Stahn, S. Spicher, S. Grimme, J. Chem. Theory Comput.,
     2021, 17, 4250-4261. DOI: 10.1021/acs.jctc.1c00471
   
   for ddCOSMO and CPCM-X implicit solvation:
   * M. Stahn, S. Ehlert, S. Grimme, J. Phys. Chem. A,
     2023, XX, XXXX-XXXX. DOI: 10.1021/acs.jpca.3c04382
   
   for DFT-D4:
   * E. Caldeweyher, C. Bannwarth and S. Grimme, J. Chem. Phys., 2017,
     147, 034112. DOI: 10.1063/1.4993215
   * E. Caldeweyher, S. Ehlert, A. Hansen, H. Neugebauer, S. Spicher,
     C. Bannwarth and S. Grimme, J. Chem. Phys., 2019, 150, 154122.
     DOI: 10.1063/1.5090222
   * E. Caldeweyher, J.-M. Mewes, S. Ehlert and S. Grimme, Phys. Chem. Chem. Phys.
     2020, 22, 8499-8512. DOI: 10.1039/D0CP00502A
   
   for sTDA-xTB:
   * S. Grimme and C. Bannwarth, J. Chem. Phys., 2016, 145, 054103.
     DOI: 10.1063/1.4959605
   
   in the mass-spec context:
   * V. Asgeirsson, C. Bauer and S. Grimme, Chem. Sci., 2017, 8, 4879.
     DOI: 10.1039/c7sc00601b
   * J. Koopman and S. Grimme, ACS Omega 2019, 4, 12, 15120-15133.
     DOI: 10.1021/acsomega.9b02011
   
   for metadynamics refer to:
   * S. Grimme, J. Chem. Theory Comput., 2019, 155, 2847-2862
     DOI: 10.1021/acs.jctc.9b00143
   
   for SPH calculations refer to:
   * S. Spicher and S. Grimme, J. Chem. Theory Comput., 2021, 17, 1701-1714
     DOI: 10.1021/acs.jctc.0c01306
   
   for ONIOM refer to:
   * C. Plett, A. Katbashev, S. Ehlert, S. Grimme, M. Bursch,
     Phys. Chem. Chem. Phys., 2023, 25, 17860-17868. DOI: 10.1039/D3CP02178E
   
   for DIPRO refer to:
   * J. Kohn, N. Gildemeister, S. Grimme, D. Fazzi, A. Hansen,
     J. Chem. Phys., 2023, just accepted.
   
   for PTB refer to:
   * S. Grimme, M. Mueller, A. Hansen, J. Chem. Phys., 2023, 158, 124111.
     DOI: 10.1063/5.0137838
   
   with help from (in alphabetical order)
   P. Atkinson, C. Bannwarth, F. Bohle, G. Brandenburg, E. Caldeweyher
   M. Checinski, S. Dohm, S. Ehlert, S. Ehrlich, I. Gerasimov, C. Hölzer
   A. Katbashev, J. Kohn, J. Koopman, C. Lavigne, S. Lehtola, F. März, M. Müller,
   F. Musil, H. Neugebauer, J. Pisarek, C. Plett, P. Pracht, F. Pultar,
   J. Seibert, P. Shushkov, S. Spicher, M. Stahn, M. Steiner, T. Strunk,
   J. Stückrath, T. Rose, and J. Unsleber
   
 * started run on 2026/01/15 at 09:37:12.708     
   ID    Z sym.   atoms
    1    6 C      1-4, 6-11, 23, 27-30, 32, 34, 38, 40-42, 45-47
    2    7 N      5, 12, 24
    3    1 H      13-21, 25, 26, 35-37, 39, 43, 44, 48, 49
    4   28 Ni     22
    5    8 O      31, 33

           -------------------------------------------------
          |                Calculation Setup                |
           -------------------------------------------------

          program call               : xtb isomer1_embed_49.xyz --sp
          coordinate file            : isomer1_embed_49.xyz
          omp threads                :                    16


           -------------------------------------------------
          |                 G F N 2 - x T B                 |
           -------------------------------------------------

        Reference                      10.1021/acs.jctc.8b01176
      * Hamiltonian:
        H0-scaling (s, p, d)           1.850000    2.230000    2.230000
        zeta-weighting                 0.500000
      * Dispersion:
        s8                             2.700000
        a1                             0.520000
        a2                             5.000000
        s9                             5.000000
      * Repulsion:
        kExp                           1.500000    1.000000
        rExp                           1.000000
      * Coulomb:
        alpha                          2.000000
        third order                    shell-resolved
        anisotropic                    true
        a3                             3.000000
        a5                             4.000000
        cn-shift                       1.200000
        cn-exp                         4.000000
        max-rad                        5.000000

q/qsh data taken from xtbrestart
CAMM data taken from xtbrestart

          ...................................................
          :                      SETUP                      :
          :.................................................:
          :  # basis functions                 145          :
          :  # atomic orbitals                 144          :
          :  # shells                           80          :
          :  # electrons                       152          :
          :  max. iterations                   250          :
          :  Hamiltonian                  GFN2-xTB          :
          :  restarted?                       true          :
          :  GBSA solvation                  false          :
          :  PC potential                    false          :
          :  electronic temp.          300.0000000     K    :
          :  accuracy                    1.0000000          :
          :  -> integral cutoff          0.2500000E+02      :
          :  -> integral neglect         0.1000000E-07      :
          :  -> SCF convergence          0.1000000E-05 Eh   :
          :  -> wf. convergence          0.1000000E-03 e    :
          :  Broyden damping             0.4000000          :
          :  net charge                          0          :
          :  unpaired electrons                  0          :
          ...................................................

 iter      E             dE          RMSdq      gap      omega  full diag
   1    -84.0596664 -0.840597E+02  0.625E+00    0.95       0.0  T
   2    -84.0799326 -0.202662E-01  0.386E+00    0.71       1.0  T
   3    -83.9781626  0.101770E+00  0.138E+00    0.98       1.0  T
   4    -84.0936958 -0.115533E+00  0.523E-01    0.60       1.0  T
   5    -84.0970123 -0.331650E-02  0.326E-01    0.69       1.0  T
   6    -84.0970035  0.877050E-05  0.212E-01    0.64       1.0  T
   7    -84.0978568 -0.853260E-03  0.872E-02    0.69       1.0  T
   8    -84.0979366 -0.797607E-04  0.497E-02    0.70       1.0  T
   9    -84.0979576 -0.210616E-04  0.220E-02    0.71       1.0  T
  10    -84.0979637 -0.612184E-05  0.134E-02    0.71       1.1  T
  11    -84.0979645 -0.714041E-06  0.673E-03    0.71       2.1  T
  12    -84.0979652 -0.713381E-06  0.228E-03    0.71       6.3  T
  13    -84.0979653 -0.113431E-06  0.136E-03    0.71      10.5  T
  14    -84.0979653 -0.293727E-07  0.601E-04    0.71      23.8  T
  15    -84.0979653 -0.548674E-08  0.243E-04    0.71      58.7  T

   *** convergence criteria satisfied after 15 iterations ***

         #    Occupation            Energy/Eh            Energy/eV
      -------------------------------------------------------------
         1        2.0000           -0.7146257             -19.4460
       ...           ...                  ...                  ...
        70        2.0000           -0.3774332             -10.2705
        71        2.0000           -0.3746557             -10.1949
        72        2.0000           -0.3737107             -10.1692
        73        2.0000           -0.3630719              -9.8797
        74        2.0000           -0.3610932              -9.8258
        75        2.0000           -0.3547578              -9.6535
        76        2.0000           -0.3392371              -9.2311 (HOMO)
        77        0.0000           -0.3131093              -8.5201 (LUMO)
        78                         -0.2917886              -7.9400
        79                         -0.2831718              -7.7055
        80                         -0.2525464              -6.8721
        81                         -0.2440757              -6.6416
       ...                                ...                  ...
       144                          1.6639066              45.2772
      -------------------------------------------------------------
                  HL-Gap            0.0261277 Eh            0.7110 eV
             Fermi-level           -0.3261732 Eh           -8.8756 eV

 SCC (total)                   0 d,  0 h,  0 min,  0.099 sec
 SCC setup                      ...        0 min,  0.000 sec (  0.444%)
 Dispersion                     ...        0 min,  0.001 sec (  1.008%)
 classical contributions        ...        0 min,  0.000 sec (  0.129%)
 integral evaluation            ...        0 min,  0.005 sec (  5.174%)
 iterations                     ...        0 min,  0.086 sec ( 86.156%)
 molecular gradient             ...        0 min,  0.007 sec (  6.620%)
 printout                       ...        0 min,  0.000 sec (  0.423%)

         :::::::::::::::::::::::::::::::::::::::::::::::::::::
         ::                     SUMMARY                     ::
         :::::::::::::::::::::::::::::::::::::::::::::::::::::
         :: total energy             -82.824254019323 Eh    ::
         :: gradient norm              0.024152440252 Eh/a0 ::
         :: HOMO-LUMO gap              0.710971770876 eV    ::
         ::.................................................::
         :: SCC energy               -84.096830844882 Eh    ::
         :: -> isotropic ES            0.097745240961 Eh    ::
         :: -> anisotropic ES          0.000033220044 Eh    ::
         :: -> anisotropic XC          0.035344905349 Eh    ::
         :: -> dispersion             -0.070048858164 Eh    ::
         :: repulsion energy           1.272576825559 Eh    ::
         :: add. restraining           0.000000000000 Eh    ::
         :: total charge               0.000000000000 e     ::
         :::::::::::::::::::::::::::::::::::::::::::::::::::::

           -------------------------------------------------
          |                Property Printout                |
           -------------------------------------------------

    * Orbital Energies and Occupations

         #    Occupation            Energy/Eh            Energy/eV
      -------------------------------------------------------------
         1        2.0000           -0.7146257             -19.4460
       ...           ...                  ...                  ...
        64        2.0000           -0.4049725             -11.0199
        65        2.0000           -0.4037420             -10.9864
        66        2.0000           -0.4029451             -10.9647
        67        2.0000           -0.4009140             -10.9094
        68        2.0000           -0.3907838             -10.6338
        69        2.0000           -0.3820583             -10.3963
        70        2.0000           -0.3774332             -10.2705
        71        2.0000           -0.3746557             -10.1949
        72        2.0000           -0.3737107             -10.1692
        73        2.0000           -0.3630719              -9.8797
        74        2.0000           -0.3610932              -9.8258
        75        2.0000           -0.3547578              -9.6535
        76        2.0000           -0.3392371              -9.2311 (HOMO)
        77        0.0000           -0.3131093              -8.5201 (LUMO)
        78                         -0.2917886              -7.9400
        79                         -0.2831718              -7.7055
        80                         -0.2525464              -6.8721
        81                         -0.2440757              -6.6416
        82                         -0.2203737              -5.9967
        83                         -0.2105294              -5.7288
        84                         -0.1948861              -5.3031
        85                         -0.1936471              -5.2694
        86                         -0.1626457              -4.4258
        87                         -0.1323776              -3.6022
       ...                                ...                  ...
       144                          1.6639066              45.2772
      -------------------------------------------------------------
                  HL-Gap            0.0261277 Eh            0.7110 eV
             Fermi-level           -0.3261732 Eh           -8.8756 eV

     #   Z          covCN         q      C6AA      α(0)
     1   6 C        2.914    -0.025    28.632     8.774
     2   6 C        2.925    -0.006    28.177     8.705
     3   6 C        2.915    -0.036    28.889     8.814
     4   6 C        3.279     0.095    24.552     7.974
     5   7 N        2.646    -0.015    21.545     6.894
     6   6 C        2.890     0.066    26.531     8.445
     7   6 C        3.182     0.092    25.551     8.250
     8   6 C        2.918    -0.039    28.971     8.826
     9   6 C        2.923    -0.009    28.253     8.717
    10   6 C        2.916    -0.030    28.758     8.794
    11   6 C        2.890     0.043    27.042     8.526
    12   7 N        2.645    -0.023    21.693     6.917
    13   1 H        0.926     0.060     2.194     2.316
    14   1 H        0.926     0.053     2.281     2.362
    15   1 H        0.926     0.047     2.360     2.402
    16   1 H        0.925     0.093     1.847     2.125
    17   1 H        0.926     0.052     2.290     2.366
    18   1 H        0.926     0.056     2.248     2.345
    19   1 H        0.926     0.060     2.202     2.321
    20   1 H        0.925     0.084     1.941     2.178
    21   1 H        0.926     0.023     2.694     2.567
    22  28 Ni       3.837    -0.282   247.743    30.897
    23   6 C        3.693     0.049    19.932     6.388
    24   7 N        2.755    -0.129    23.789     7.244
    25   1 H        0.922     0.047     2.358     2.401
    26   1 H        0.925     0.028     2.608     2.525
    27   6 C        2.986     0.025    27.427     8.591
    28   6 C        2.678     0.417    19.987     7.316
    29   6 C        2.923    -0.021    28.542     8.761
    30   6 C        2.910     0.074    26.355     8.418
    31   8 O        1.599    -0.339    19.726     5.994
    32   6 C        2.921    -0.030    28.738     8.791
    33   8 O        0.857    -0.474    23.212     6.460
    34   6 C        2.924    -0.045    29.128     8.851
    35   1 H        0.926     0.062     2.171     2.304
    36   1 H        0.926     0.029     2.594     2.519
    37   1 H        0.925     0.070     2.084     2.258
    38   6 C        2.921    -0.041    29.008     8.832
    39   1 H        0.926     0.030     2.590     2.516
    40   6 C        2.918    -0.029    28.725     8.789
    41   6 C        2.918    -0.032    28.805     8.801
    42   6 C        2.920    -0.034    28.836     8.806
    43   1 H        0.926     0.035     2.513     2.479
    44   1 H        0.926     0.023     2.692     2.566
    45   6 C        2.920    -0.033    28.818     8.803
    46   6 C        2.918    -0.042    29.042     8.837
    47   6 C        2.924    -0.053    29.311     8.878
    48   1 H        0.925     0.022     2.708     2.573
    49   1 H        0.926     0.031     2.571     2.507

 Mol. C6AA /au·bohr⁶  :      37424.779602
 Mol. C8AA /au·bohr⁸  :    1052914.856468
 Mol. α(0) /au        :        314.725022


Wiberg/Mayer (AO) data.
largest (>0.10) Wiberg bond orders for each atom

 ---------------------------------------------------------------------------
     #   Z sym  total        # sym  WBO       # sym  WBO       # sym  WBO
 ---------------------------------------------------------------------------
     1   6 C    3.980 --     2 C    1.427     6 C    1.423    13 H    0.968
     2   6 C    3.983 --     3 C    1.450     1 C    1.427    14 H    0.968
     3   6 C    3.990 --     2 C    1.450     4 C    1.370    15 H    0.965
                             6 C    0.104
     4   6 C    3.981 --     3 C    1.370     5 N    1.293     7 C    1.042
     5   7 N    3.464 --     6 C    1.395     4 C    1.293    22 Ni   0.517
     6   6 C    3.968 --     1 C    1.423     5 N    1.395    16 H    0.949
                             3 C    0.104
     7   6 C    3.980 --     8 C    1.379    12 N    1.299     4 C    1.042
     8   6 C    3.989 --     9 C    1.450     7 C    1.379    17 H    0.964
                            11 C    0.102
     9   6 C    3.983 --     8 C    1.450    10 C    1.418    18 H    0.968
    10   6 C    3.981 --    11 C    1.436     9 C    1.418    19 H    0.968
    11   6 C    3.971 --    10 C    1.436    12 N    1.386    20 H    0.939
                             8 C    0.102
    12   7 N    3.526 --    11 C    1.386     7 C    1.299    22 Ni   0.570
    13   1 H    0.996 --     1 C    0.968
    14   1 H    0.996 --     2 C    0.968
    15   1 H    0.997 --     3 C    0.965
    16   1 H    0.991 --     6 C    0.949
    17   1 H    0.997 --     8 C    0.964
    18   1 H    0.996 --     9 C    0.968
    19   1 H    0.996 --    10 C    0.968
    20   1 H    0.993 --    11 C    0.939
    21   1 H    0.999 --    47 C    0.964
    22  28 Ni   3.494 --    23 C    0.860    31 O    0.767    12 N    0.570
                             5 N    0.517
    23   6 C    3.941 --    27 C    0.993    24 N    0.938    25 H    0.896
                            22 Ni   0.860
    24   7 N    3.469 --    28 C    1.070    30 C    1.069    23 C    0.938
                            33 O    0.123
    25   1 H    0.997 --    23 C    0.896
    26   1 H    0.999 --    38 C    0.967
    27   6 C    3.987 --    38 C    1.377    29 C    1.365    23 C    0.993
                            45 C    0.103
    28   6 C    3.943 --    33 O    1.601    31 O    1.182    24 N    1.070
    29   6 C    3.990 --    40 C    1.460    27 C    1.365    37 H    0.933
                            41 C    0.108
    30   6 C    3.966 --    47 C    1.368    34 C    1.363    24 N    1.069
    31   8 O    2.333 --    28 C    1.182    22 Ni   0.767    33 O    0.140
    32   6 C    3.991 --    34 C    1.459    46 C    1.428    36 H    0.971
                            47 C    0.104
    33   8 O    1.971 --    28 C    1.601    31 O    0.140    24 N    0.123
    34   6 C    3.987 --    32 C    1.459    30 C    1.363    35 H    0.963
                            42 C    0.107
    35   1 H    0.996 --    34 C    0.963
    36   1 H    0.999 --    32 C    0.971
    37   1 H    0.995 --    29 C    0.933
    38   6 C    3.986 --    41 C    1.441    27 C    1.377    26 H    0.967
                            40 C    0.104
    39   1 H    0.998 --    41 C    0.971
    40   6 C    3.992 --    29 C    1.460    45 C    1.425    43 H    0.970
                            38 C    0.104
    41   6 C    3.991 --    38 C    1.441    45 C    1.440    39 H    0.971
                            29 C    0.108
    42   6 C    3.992 --    47 C    1.452    46 C    1.433    48 H    0.972
                            34 C    0.107
    43   1 H    0.998 --    40 C    0.970
    44   1 H    0.999 --    46 C    0.972
    45   6 C    3.987 --    41 C    1.440    40 C    1.425    49 H    0.972
                            27 C    0.103
    46   6 C    3.989 --    42 C    1.433    32 C    1.428    44 H    0.972
    47   6 C    3.989 --    42 C    1.452    30 C    1.368    21 H    0.964
                            32 C    0.104
    48   1 H    0.999 --    42 C    0.972
    49   1 H    0.998 --    45 C    0.972
 ---------------------------------------------------------------------------

Topologies differ in total number of bonds
Writing topology from bond orders to xtbtopo.mol

molecular dipole:
                 x           y           z       tot (Debye)
 q only:        2.974       1.766       2.947
   full:        3.793       2.224       2.990      13.516
molecular quadrupole (traceless):
                xx          xy          yy          xz          yz          zz
 q only:      -20.470      58.651      33.304      24.164      52.205     -12.834
  q+dip:      -17.993      73.521      45.389      28.655      49.526     -27.395
   full:      -20.819      74.253      43.221      27.420      54.636     -22.402


           -------------------------------------------------
          | TOTAL ENERGY              -82.824254019323 Eh   |
          | GRADIENT NORM               0.024152440252 Eh/α |
          | HOMO-LUMO GAP               0.710971770876 eV   |
           -------------------------------------------------

------------------------------------------------------------------------
 * finished run on 2026/01/15 at 09:37:12.824     
------------------------------------------------------------------------
 total:
 * wall-time:     0 d,  0 h,  0 min,  0.115 sec
 *  cpu-time:     0 d,  0 h,  0 min,  1.664 sec
 * ratio c/w:    14.423 speedup
 SCF:
 * wall-time:     0 d,  0 h,  0 min,  0.100 sec
 *  cpu-time:     0 d,  0 h,  0 min,  1.483 sec
 * ratio c/w:    14.868 speedup

