      -----------------------------------------------------------      
     |                   =====================                   |     
     |                           x T B                           |     
     |                   =====================                   |     
     |                         S. Grimme                         |     
     |          Mulliken Center for Theoretical Chemistry        |     
     |                    University of Bonn                     |     
      -----------------------------------------------------------      

   * xtb version 6.7.0 (08769fc) compiled by 'albert@albert-system' on 2024-03-04

   xtb is free software: you can redistribute it and/or modify it under
   the terms of the GNU Lesser General Public License as published by
   the Free Software Foundation, either version 3 of the License, or
   (at your option) any later version.
   
   xtb is distributed in the hope that it will be useful,
   but WITHOUT ANY WARRANTY; without even the implied warranty of
   MERCHANTABILITY or FITNESS FOR A PARTICULAR PURPOSE.  See the
   GNU Lesser General Public License for more details.
   
   Cite this work as:
   * C. Bannwarth, E. Caldeweyher, S. Ehlert, A. Hansen, P. Pracht,
     J. Seibert, S. Spicher, S. Grimme, WIREs Comput. Mol. Sci., 2020, 11,
     e01493. DOI: 10.1002/wcms.1493
   
   for GFN2-xTB:
   * C. Bannwarth, S. Ehlert and S. Grimme., J. Chem. Theory Comput., 2019,
     15, 1652-1671. DOI: 10.1021/acs.jctc.8b01176
   for GFN1-xTB:
   * S. Grimme, C. Bannwarth, P. Shushkov, J. Chem. Theory Comput., 2017,
     13, 1989-2009. DOI: 10.1021/acs.jctc.7b00118
   for GFN0-xTB:
   * P. Pracht, E. Caldeweyher, S. Ehlert, S. Grimme, ChemRxiv, 2019, preprint.
     DOI: 10.26434/chemrxiv.8326202.v1
   for GFN-FF:
   * S. Spicher and S. Grimme, Angew. Chem. Int. Ed., 2020, 59, 15665-15673.
     DOI: 10.1002/anie.202004239
   
   for ALPB and GBSA implicit solvation:
   * S. Ehlert, M. Stahn, S. Spicher, S. Grimme, J. Chem. Theory Comput.,
     2021, 17, 4250-4261. DOI: 10.1021/acs.jctc.1c00471
   
   for ddCOSMO and CPCM-X implicit solvation:
   * M. Stahn, S. Ehlert, S. Grimme, J. Phys. Chem. A,
     2023, XX, XXXX-XXXX. DOI: 10.1021/acs.jpca.3c04382
   
   for DFT-D4:
   * E. Caldeweyher, C. Bannwarth and S. Grimme, J. Chem. Phys., 2017,
     147, 034112. DOI: 10.1063/1.4993215
   * E. Caldeweyher, S. Ehlert, A. Hansen, H. Neugebauer, S. Spicher,
     C. Bannwarth and S. Grimme, J. Chem. Phys., 2019, 150, 154122.
     DOI: 10.1063/1.5090222
   * E. Caldeweyher, J.-M. Mewes, S. Ehlert and S. Grimme, Phys. Chem. Chem. Phys.
     2020, 22, 8499-8512. DOI: 10.1039/D0CP00502A
   
   for sTDA-xTB:
   * S. Grimme and C. Bannwarth, J. Chem. Phys., 2016, 145, 054103.
     DOI: 10.1063/1.4959605
   
   in the mass-spec context:
   * V. Asgeirsson, C. Bauer and S. Grimme, Chem. Sci., 2017, 8, 4879.
     DOI: 10.1039/c7sc00601b
   * J. Koopman and S. Grimme, ACS Omega 2019, 4, 12, 15120-15133.
     DOI: 10.1021/acsomega.9b02011
   
   for metadynamics refer to:
   * S. Grimme, J. Chem. Theory Comput., 2019, 155, 2847-2862
     DOI: 10.1021/acs.jctc.9b00143
   
   for SPH calculations refer to:
   * S. Spicher and S. Grimme, J. Chem. Theory Comput., 2021, 17, 1701-1714
     DOI: 10.1021/acs.jctc.0c01306
   
   for ONIOM refer to:
   * C. Plett, A. Katbashev, S. Ehlert, S. Grimme, M. Bursch,
     Phys. Chem. Chem. Phys., 2023, 25, 17860-17868. DOI: 10.1039/D3CP02178E
   
   for DIPRO refer to:
   * J. Kohn, N. Gildemeister, S. Grimme, D. Fazzi, A. Hansen,
     J. Chem. Phys., 2023, just accepted.
   
   for PTB refer to:
   * S. Grimme, M. Mueller, A. Hansen, J. Chem. Phys., 2023, 158, 124111.
     DOI: 10.1063/5.0137838
   
   with help from (in alphabetical order)
   P. Atkinson, C. Bannwarth, F. Bohle, G. Brandenburg, E. Caldeweyher
   M. Checinski, S. Dohm, S. Ehlert, S. Ehrlich, I. Gerasimov, C. Hölzer
   A. Katbashev, J. Kohn, J. Koopman, C. Lavigne, S. Lehtola, F. März, M. Müller,
   F. Musil, H. Neugebauer, J. Pisarek, C. Plett, P. Pracht, F. Pultar,
   J. Seibert, P. Shushkov, S. Spicher, M. Stahn, M. Steiner, T. Strunk,
   J. Stückrath, T. Rose, and J. Unsleber
   
 * started run on 2026/01/15 at 09:37:08.644     
   ID    Z sym.   atoms
    1    6 C      1-4, 6-11, 23, 27-30, 32, 34, 38, 40-42, 45-47
    2    7 N      5, 12, 24
    3    1 H      13-21, 25, 26, 35-37, 39, 43, 44, 48, 49
    4   28 Ni     22
    5    8 O      31, 33

           -------------------------------------------------
          |                Calculation Setup                |
           -------------------------------------------------

          program call               : xtb isomer1_embed_15.xyz --sp
          coordinate file            : isomer1_embed_15.xyz
          omp threads                :                    16


           -------------------------------------------------
          |                 G F N 2 - x T B                 |
           -------------------------------------------------

        Reference                      10.1021/acs.jctc.8b01176
      * Hamiltonian:
        H0-scaling (s, p, d)           1.850000    2.230000    2.230000
        zeta-weighting                 0.500000
      * Dispersion:
        s8                             2.700000
        a1                             0.520000
        a2                             5.000000
        s9                             5.000000
      * Repulsion:
        kExp                           1.500000    1.000000
        rExp                           1.000000
      * Coulomb:
        alpha                          2.000000
        third order                    shell-resolved
        anisotropic                    true
        a3                             3.000000
        a5                             4.000000
        cn-shift                       1.200000
        cn-exp                         4.000000
        max-rad                        5.000000

q/qsh data taken from xtbrestart
CAMM data taken from xtbrestart

          ...................................................
          :                      SETUP                      :
          :.................................................:
          :  # basis functions                 145          :
          :  # atomic orbitals                 144          :
          :  # shells                           80          :
          :  # electrons                       152          :
          :  max. iterations                   250          :
          :  Hamiltonian                  GFN2-xTB          :
          :  restarted?                       true          :
          :  GBSA solvation                  false          :
          :  PC potential                    false          :
          :  electronic temp.          300.0000000     K    :
          :  accuracy                    1.0000000          :
          :  -> integral cutoff          0.2500000E+02      :
          :  -> integral neglect         0.1000000E-07      :
          :  -> SCF convergence          0.1000000E-05 Eh   :
          :  -> wf. convergence          0.1000000E-03 e    :
          :  Broyden damping             0.4000000          :
          :  net charge                          0          :
          :  unpaired electrons                  0          :
          ...................................................

 iter      E             dE          RMSdq      gap      omega  full diag
   1    -84.0639764 -0.840640E+02  0.606E+00    0.29       0.0  T
   2    -84.0761040 -0.121276E-01  0.374E+00    0.81       1.0  T
   3    -83.4661593  0.609945E+00  0.250E+00    0.44       1.0  T
   4    -84.0581965 -0.592037E+00  0.810E-01    1.50       1.0  T
   5    -84.0814290 -0.232325E-01  0.483E-01    1.05       1.0  T
   6    -84.0843159 -0.288694E-02  0.305E-01    0.81       1.0  T
   7    -84.0886928 -0.437690E-02  0.158E-01    0.55       1.0  T
   8    -84.0889311 -0.238315E-03  0.709E-02    0.44       1.0  T
   9    -84.0889781 -0.469652E-04  0.432E-02    0.44       1.0  T
  10    -84.0890030 -0.248992E-04  0.264E-02    0.45       1.0  T
  11    -84.0890081 -0.512269E-05  0.150E-02    0.45       1.0  T
  12    -84.0890099 -0.176400E-05  0.861E-03    0.45       1.7  T
  13    -84.0890119 -0.202098E-05  0.324E-03    0.46       4.4  T
  14    -84.0890120 -0.122358E-06  0.169E-03    0.46       8.5  T
  15    -84.0890120 -0.159305E-07  0.949E-04    0.46      15.1  T
  16    -84.0890121 -0.103311E-07  0.475E-04    0.46      30.1  T

   *** convergence criteria satisfied after 16 iterations ***

         #    Occupation            Energy/Eh            Energy/eV
      -------------------------------------------------------------
         1        2.0000           -0.7078348             -19.2612
       ...           ...                  ...                  ...
        70        2.0000           -0.3897771             -10.6064
        71        2.0000           -0.3726607             -10.1406
        72        2.0000           -0.3661162              -9.9625
        73        2.0000           -0.3629471              -9.8763
        74        2.0000           -0.3592621              -9.7760
        75        2.0000           -0.3584597              -9.7542
        76        1.9997           -0.3277850              -8.9195 (HOMO)
        77        0.0003           -0.3108975              -8.4600 (LUMO)
        78                         -0.2854680              -7.7680
        79                         -0.2785243              -7.5790
        80                         -0.2567374              -6.9862
        81                         -0.2391237              -6.5069
       ...                                ...                  ...
       144                          1.7295916              47.0646
      -------------------------------------------------------------
                  HL-Gap            0.0168876 Eh            0.4595 eV
             Fermi-level           -0.3193412 Eh           -8.6897 eV

 SCC (total)                   0 d,  0 h,  0 min,  0.065 sec
 SCC setup                      ...        0 min,  0.000 sec (  0.681%)
 Dispersion                     ...        0 min,  0.001 sec (  1.312%)
 classical contributions        ...        0 min,  0.000 sec (  0.155%)
 integral evaluation            ...        0 min,  0.005 sec (  7.568%)
 iterations                     ...        0 min,  0.052 sec ( 79.398%)
 molecular gradient             ...        0 min,  0.007 sec ( 10.184%)
 printout                       ...        0 min,  0.000 sec (  0.639%)

         :::::::::::::::::::::::::::::::::::::::::::::::::::::
         ::                     SUMMARY                     ::
         :::::::::::::::::::::::::::::::::::::::::::::::::::::
         :: total energy             -82.817787674792 Eh    ::
         :: gradient norm              0.044580705525 Eh/a0 ::
         :: HOMO-LUMO gap              0.459534316397 eV    ::
         ::.................................................::
         :: SCC energy               -84.087594161318 Eh    ::
         :: -> isotropic ES            0.094641428398 Eh    ::
         :: -> anisotropic ES         -0.000892297033 Eh    ::
         :: -> anisotropic XC          0.038013022291 Eh    ::
         :: -> dispersion             -0.070533169371 Eh    ::
         :: repulsion energy           1.269806486525 Eh    ::
         :: add. restraining           0.000000000000 Eh    ::
         :: total charge              -0.000000000000 e     ::
         :::::::::::::::::::::::::::::::::::::::::::::::::::::

           -------------------------------------------------
          |                Property Printout                |
           -------------------------------------------------

    * Orbital Energies and Occupations

         #    Occupation            Energy/Eh            Energy/eV
      -------------------------------------------------------------
         1        2.0000           -0.7078348             -19.2612
       ...           ...                  ...                  ...
        64        2.0000           -0.4138429             -11.2612
        65        2.0000           -0.4113048             -11.1922
        66        2.0000           -0.4077523             -11.0955
        67        2.0000           -0.4042670             -11.0007
        68        2.0000           -0.3994850             -10.8705
        69        2.0000           -0.3924843             -10.6800
        70        2.0000           -0.3897771             -10.6064
        71        2.0000           -0.3726607             -10.1406
        72        2.0000           -0.3661162              -9.9625
        73        2.0000           -0.3629471              -9.8763
        74        2.0000           -0.3592621              -9.7760
        75        2.0000           -0.3584597              -9.7542
        76        1.9997           -0.3277850              -8.9195 (HOMO)
        77        0.0003           -0.3108975              -8.4600 (LUMO)
        78                         -0.2854680              -7.7680
        79                         -0.2785243              -7.5790
        80                         -0.2567374              -6.9862
        81                         -0.2391237              -6.5069
        82                         -0.2213888              -6.0243
        83                         -0.2106879              -5.7331
        84                         -0.2083860              -5.6705
        85                         -0.1995341              -5.4296
        86                         -0.1617486              -4.4014
        87                         -0.1579323              -4.2976
       ...                                ...                  ...
       144                          1.7295916              47.0646
      -------------------------------------------------------------
                  HL-Gap            0.0168876 Eh            0.4595 eV
             Fermi-level           -0.3193412 Eh           -8.6897 eV

     #   Z          covCN         q      C6AA      α(0)
     1   6 C        2.917    -0.032    28.809     8.802
     2   6 C        2.923    -0.010    28.262     8.718
     3   6 C        2.918    -0.039    28.970     8.826
     4   6 C        3.043     0.084    26.089     8.377
     5   7 N        2.639    -0.019    21.635     6.908
     6   6 C        2.893     0.046    26.961     8.513
     7   6 C        3.067     0.084    26.054     8.370
     8   6 C        2.915    -0.037    28.908     8.817
     9   6 C        2.925    -0.009    28.252     8.717
    10   6 C        2.914    -0.029    28.716     8.787
    11   6 C        2.890     0.063    26.592     8.455
    12   7 N        2.644    -0.013    21.522     6.890
    13   1 H        0.926     0.058     2.224     2.332
    14   1 H        0.926     0.054     2.269     2.356
    15   1 H        0.926     0.052     2.300     2.372
    16   1 H        0.926     0.084     1.935     2.175
    17   1 H        0.926     0.045     2.380     2.412
    18   1 H        0.926     0.050     2.326     2.385
    19   1 H        0.926     0.056     2.245     2.343
    20   1 H        0.925     0.096     1.826     2.113
    21   1 H        0.926     0.057     2.237     2.339
    22  28 Ni       3.483    -0.340   190.414    28.472
    23   6 C        3.713     0.063    19.653     6.335
    24   7 N        2.769    -0.166    24.582     7.364
    25   1 H        0.921     0.081     1.969     2.195
    26   1 H        0.925     0.028     2.608     2.526
    27   6 C        2.966     0.016    27.660     8.627
    28   6 C        2.733     0.433    19.732     7.273
    29   6 C        2.921    -0.038    28.943     8.822
    30   6 C        2.941     0.087    26.057     8.372
    31   8 O        1.587    -0.343    19.811     6.006
    32   6 C        2.918    -0.033    28.830     8.805
    33   8 O        0.856    -0.439    22.466     6.355
    34   6 C        2.920    -0.040    28.989     8.829
    35   1 H        0.924     0.080     1.977     2.199
    36   1 H        0.926     0.025     2.653     2.547
    37   1 H        0.926     0.045     2.378     2.412
    38   6 C        2.927    -0.040    28.986     8.829
    39   1 H        0.926     0.026     2.639     2.540
    40   6 C        2.918    -0.031    28.769     8.796
    41   6 C        2.917    -0.033    28.825     8.804
    42   6 C        2.920    -0.029    28.713     8.787
    43   1 H        0.926     0.032     2.563     2.504
    44   1 H        0.926     0.028     2.614     2.528
    45   6 C        2.919    -0.036    28.900     8.816
    46   6 C        2.920    -0.039    28.981     8.828
    47   6 C        2.922    -0.042    29.053     8.839
    48   1 H        0.926     0.034     2.525     2.485
    49   1 H        0.926     0.028     2.610     2.526

 Mol. C6AA /au·bohr⁶  :      36611.696403
 Mol. C8AA /au·bohr⁸  :    1015010.725633
 Mol. α(0) /au        :        312.425270


Wiberg/Mayer (AO) data.
largest (>0.10) Wiberg bond orders for each atom

 ---------------------------------------------------------------------------
     #   Z sym  total        # sym  WBO       # sym  WBO       # sym  WBO
 ---------------------------------------------------------------------------
     1   6 C    3.977 --     6 C    1.431     2 C    1.420    13 H    0.968
     2   6 C    3.981 --     3 C    1.444     1 C    1.420    14 H    0.968
     3   6 C    3.988 --     2 C    1.444     4 C    1.388    15 H    0.963
     4   6 C    3.978 --     3 C    1.388     5 N    1.290     7 C    1.055
     5   7 N    3.539 --     6 C    1.385     4 C    1.290    22 Ni   0.581
     6   6 C    3.972 --     1 C    1.431     5 N    1.385    16 H    0.942
     7   6 C    3.979 --     8 C    1.384    12 N    1.289     4 C    1.055
     8   6 C    3.990 --     9 C    1.444     7 C    1.384    17 H    0.965
                            11 C    0.102
     9   6 C    3.975 --     8 C    1.444    10 C    1.426    18 H    0.969
    10   6 C    3.976 --     9 C    1.426    11 C    1.423    19 H    0.969
    11   6 C    3.969 --    10 C    1.423    12 N    1.395    20 H    0.946
                             8 C    0.102
    12   7 N    3.474 --    11 C    1.395     7 C    1.289    22 Ni   0.521
    13   1 H    0.996 --     1 C    0.968
    14   1 H    0.996 --     2 C    0.968
    15   1 H    0.997 --     3 C    0.963
    16   1 H    0.992 --     6 C    0.942
    17   1 H    0.997 --     8 C    0.965
    18   1 H    0.997 --     9 C    0.969
    19   1 H    0.996 --    10 C    0.969
    20   1 H    0.990 --    11 C    0.946
    21   1 H    0.997 --    47 C    0.967
    22  28 Ni   3.426 --    23 C    0.784    31 O    0.611     5 N    0.581
                            12 N    0.521    24 N    0.132
    23   6 C    3.947 --    27 C    1.046    24 N    1.028    25 H    0.867
                            22 Ni   0.784
    24   7 N    3.348 --    30 C    1.032    23 C    1.028    28 C    0.839
                            22 Ni   0.132
    25   1 H    0.993 --    23 C    0.867
    26   1 H    0.999 --    38 C    0.963
    27   6 C    3.987 --    29 C    1.370    38 C    1.348    23 C    1.046
    28   6 C    3.938 --    33 O    1.684    31 O    1.320    24 N    0.839
    29   6 C    3.984 --    40 C    1.448    27 C    1.370    37 H    0.960
                            41 C    0.101
    30   6 C    3.971 --    47 C    1.368    34 C    1.360    24 N    1.032
    31   8 O    2.320 --    28 C    1.320    22 Ni   0.611    33 O    0.183
    32   6 C    3.992 --    34 C    1.455    46 C    1.429    36 H    0.971
                            47 C    0.107
    33   8 O    2.019 --    28 C    1.684    31 O    0.183
    34   6 C    3.986 --    32 C    1.455    30 C    1.360    35 H    0.867
                            42 C    0.105
    35   1 H    0.993 --    34 C    0.867
    36   1 H    0.999 --    32 C    0.971
    37   1 H    0.998 --    29 C    0.960
    38   6 C    3.989 --    41 C    1.472    27 C    1.348    26 H    0.963
                            40 C    0.105
    39   1 H    0.999 --    41 C    0.971
    40   6 C    3.992 --    29 C    1.448    45 C    1.437    43 H    0.971
                            38 C    0.105
    41   6 C    3.992 --    38 C    1.472    45 C    1.417    39 H    0.971
                            29 C    0.101
    42   6 C    3.991 --    47 C    1.456    46 C    1.430    48 H    0.971
                            34 C    0.105
    43   1 H    0.998 --    40 C    0.971
    44   1 H    0.999 --    46 C    0.972
    45   6 C    3.959 --    40 C    1.437    41 C    1.417    49 H    0.972
    46   6 C    3.979 --    42 C    1.430    32 C    1.429    44 H    0.972
    47   6 C    3.984 --    42 C    1.456    30 C    1.368    21 H    0.967
                            32 C    0.107
    48   1 H    0.998 --    42 C    0.971
    49   1 H    0.999 --    45 C    0.972
 ---------------------------------------------------------------------------

Topologies differ in total number of bonds
Writing topology from bond orders to xtbtopo.mol

molecular dipole:
                 x           y           z       tot (Debye)
 q only:        1.335       2.208       3.155
   full:        1.338       2.132       4.138      12.310
molecular quadrupole (traceless):
                xx          xy          yy          xz          yz          zz
 q only:      -20.806      -4.569     -56.324      35.392      -2.017      77.131
  q+dip:      -36.061      -5.746     -65.085      36.037     -12.548     101.146
   full:      -30.385      -5.497     -66.853      37.707     -11.709      97.238


           -------------------------------------------------
          | TOTAL ENERGY              -82.817787674792 Eh   |
          | GRADIENT NORM               0.044580705525 Eh/α |
          | HOMO-LUMO GAP               0.459534316397 eV   |
           -------------------------------------------------

------------------------------------------------------------------------
 * finished run on 2026/01/15 at 09:37:08.727     
------------------------------------------------------------------------
 total:
 * wall-time:     0 d,  0 h,  0 min,  0.082 sec
 *  cpu-time:     0 d,  0 h,  0 min,  1.234 sec
 * ratio c/w:    15.046 speedup
 SCF:
 * wall-time:     0 d,  0 h,  0 min,  0.066 sec
 *  cpu-time:     0 d,  0 h,  0 min,  1.033 sec
 * ratio c/w:    15.729 speedup

