      -----------------------------------------------------------      
     |                   =====================                   |     
     |                           x T B                           |     
     |                   =====================                   |     
     |                         S. Grimme                         |     
     |          Mulliken Center for Theoretical Chemistry        |     
     |                    University of Bonn                     |     
      -----------------------------------------------------------      

   * xtb version 6.7.0 (08769fc) compiled by 'albert@albert-system' on 2024-03-04

   xtb is free software: you can redistribute it and/or modify it under
   the terms of the GNU Lesser General Public License as published by
   the Free Software Foundation, either version 3 of the License, or
   (at your option) any later version.
   
   xtb is distributed in the hope that it will be useful,
   but WITHOUT ANY WARRANTY; without even the implied warranty of
   MERCHANTABILITY or FITNESS FOR A PARTICULAR PURPOSE.  See the
   GNU Lesser General Public License for more details.
   
   Cite this work as:
   * C. Bannwarth, E. Caldeweyher, S. Ehlert, A. Hansen, P. Pracht,
     J. Seibert, S. Spicher, S. Grimme, WIREs Comput. Mol. Sci., 2020, 11,
     e01493. DOI: 10.1002/wcms.1493
   
   for GFN2-xTB:
   * C. Bannwarth, S. Ehlert and S. Grimme., J. Chem. Theory Comput., 2019,
     15, 1652-1671. DOI: 10.1021/acs.jctc.8b01176
   for GFN1-xTB:
   * S. Grimme, C. Bannwarth, P. Shushkov, J. Chem. Theory Comput., 2017,
     13, 1989-2009. DOI: 10.1021/acs.jctc.7b00118
   for GFN0-xTB:
   * P. Pracht, E. Caldeweyher, S. Ehlert, S. Grimme, ChemRxiv, 2019, preprint.
     DOI: 10.26434/chemrxiv.8326202.v1
   for GFN-FF:
   * S. Spicher and S. Grimme, Angew. Chem. Int. Ed., 2020, 59, 15665-15673.
     DOI: 10.1002/anie.202004239
   
   for ALPB and GBSA implicit solvation:
   * S. Ehlert, M. Stahn, S. Spicher, S. Grimme, J. Chem. Theory Comput.,
     2021, 17, 4250-4261. DOI: 10.1021/acs.jctc.1c00471
   
   for ddCOSMO and CPCM-X implicit solvation:
   * M. Stahn, S. Ehlert, S. Grimme, J. Phys. Chem. A,
     2023, XX, XXXX-XXXX. DOI: 10.1021/acs.jpca.3c04382
   
   for DFT-D4:
   * E. Caldeweyher, C. Bannwarth and S. Grimme, J. Chem. Phys., 2017,
     147, 034112. DOI: 10.1063/1.4993215
   * E. Caldeweyher, S. Ehlert, A. Hansen, H. Neugebauer, S. Spicher,
     C. Bannwarth and S. Grimme, J. Chem. Phys., 2019, 150, 154122.
     DOI: 10.1063/1.5090222
   * E. Caldeweyher, J.-M. Mewes, S. Ehlert and S. Grimme, Phys. Chem. Chem. Phys.
     2020, 22, 8499-8512. DOI: 10.1039/D0CP00502A
   
   for sTDA-xTB:
   * S. Grimme and C. Bannwarth, J. Chem. Phys., 2016, 145, 054103.
     DOI: 10.1063/1.4959605
   
   in the mass-spec context:
   * V. Asgeirsson, C. Bauer and S. Grimme, Chem. Sci., 2017, 8, 4879.
     DOI: 10.1039/c7sc00601b
   * J. Koopman and S. Grimme, ACS Omega 2019, 4, 12, 15120-15133.
     DOI: 10.1021/acsomega.9b02011
   
   for metadynamics refer to:
   * S. Grimme, J. Chem. Theory Comput., 2019, 155, 2847-2862
     DOI: 10.1021/acs.jctc.9b00143
   
   for SPH calculations refer to:
   * S. Spicher and S. Grimme, J. Chem. Theory Comput., 2021, 17, 1701-1714
     DOI: 10.1021/acs.jctc.0c01306
   
   for ONIOM refer to:
   * C. Plett, A. Katbashev, S. Ehlert, S. Grimme, M. Bursch,
     Phys. Chem. Chem. Phys., 2023, 25, 17860-17868. DOI: 10.1039/D3CP02178E
   
   for DIPRO refer to:
   * J. Kohn, N. Gildemeister, S. Grimme, D. Fazzi, A. Hansen,
     J. Chem. Phys., 2023, just accepted.
   
   for PTB refer to:
   * S. Grimme, M. Mueller, A. Hansen, J. Chem. Phys., 2023, 158, 124111.
     DOI: 10.1063/5.0137838
   
   with help from (in alphabetical order)
   P. Atkinson, C. Bannwarth, F. Bohle, G. Brandenburg, E. Caldeweyher
   M. Checinski, S. Dohm, S. Ehlert, S. Ehrlich, I. Gerasimov, C. Hölzer
   A. Katbashev, J. Kohn, J. Koopman, C. Lavigne, S. Lehtola, F. März, M. Müller,
   F. Musil, H. Neugebauer, J. Pisarek, C. Plett, P. Pracht, F. Pultar,
   J. Seibert, P. Shushkov, S. Spicher, M. Stahn, M. Steiner, T. Strunk,
   J. Stückrath, T. Rose, and J. Unsleber
   
 * started run on 2026/01/15 at 09:37:12.209     
   ID    Z sym.   atoms
    1    6 C      1-4, 6-11, 23, 27-30, 32, 34, 38, 40-42, 45-47
    2    7 N      5, 12, 24
    3    1 H      13-21, 25, 26, 35-37, 39, 43, 44, 48, 49
    4   28 Ni     22
    5    8 O      31, 33

           -------------------------------------------------
          |                Calculation Setup                |
           -------------------------------------------------

          program call               : xtb isomer1_embed_44.xyz --sp
          coordinate file            : isomer1_embed_44.xyz
          omp threads                :                    16


           -------------------------------------------------
          |                 G F N 2 - x T B                 |
           -------------------------------------------------

        Reference                      10.1021/acs.jctc.8b01176
      * Hamiltonian:
        H0-scaling (s, p, d)           1.850000    2.230000    2.230000
        zeta-weighting                 0.500000
      * Dispersion:
        s8                             2.700000
        a1                             0.520000
        a2                             5.000000
        s9                             5.000000
      * Repulsion:
        kExp                           1.500000    1.000000
        rExp                           1.000000
      * Coulomb:
        alpha                          2.000000
        third order                    shell-resolved
        anisotropic                    true
        a3                             3.000000
        a5                             4.000000
        cn-shift                       1.200000
        cn-exp                         4.000000
        max-rad                        5.000000

q/qsh data taken from xtbrestart
CAMM data taken from xtbrestart

          ...................................................
          :                      SETUP                      :
          :.................................................:
          :  # basis functions                 145          :
          :  # atomic orbitals                 144          :
          :  # shells                           80          :
          :  # electrons                       152          :
          :  max. iterations                   250          :
          :  Hamiltonian                  GFN2-xTB          :
          :  restarted?                       true          :
          :  GBSA solvation                  false          :
          :  PC potential                    false          :
          :  electronic temp.          300.0000000     K    :
          :  accuracy                    1.0000000          :
          :  -> integral cutoff          0.2500000E+02      :
          :  -> integral neglect         0.1000000E-07      :
          :  -> SCF convergence          0.1000000E-05 Eh   :
          :  -> wf. convergence          0.1000000E-03 e    :
          :  Broyden damping             0.4000000          :
          :  net charge                          0          :
          :  unpaired electrons                  0          :
          ...................................................

 iter      E             dE          RMSdq      gap      omega  full diag
   1    -84.0700860 -0.840701E+02  0.553E+00    0.79       0.0  T
   2    -84.0899224 -0.198364E-01  0.353E+00    0.58       1.0  T
   3    -84.0296008  0.603216E-01  0.123E+00    0.67       1.0  T
   4    -84.0939226 -0.643218E-01  0.778E-01    0.43       1.0  T
   5    -84.1010936 -0.717102E-02  0.408E-01    0.67       1.0  T
   6    -84.1026333 -0.153969E-02  0.243E-01    0.50       1.0  T
   7    -84.1035770 -0.943675E-03  0.857E-02    0.57       1.0  T
   8    -84.1036102 -0.332086E-04  0.580E-02    0.56       1.0  T
   9    -84.1036427 -0.324887E-04  0.227E-02    0.57       1.0  T
  10    -84.1036514 -0.876592E-05  0.125E-02    0.57       1.1  T
  11    -84.1036522 -0.798863E-06  0.723E-03    0.57       2.0  T
  12    -84.1036530 -0.794449E-06  0.374E-03    0.57       3.8  T
  13    -84.1036531 -0.554479E-07  0.205E-03    0.57       7.0  T
  14    -84.1036531 -0.379259E-07  0.894E-04    0.57      16.0  T
  15    -84.1036531 -0.123004E-07  0.410E-04    0.57      34.8  T

   *** convergence criteria satisfied after 15 iterations ***

         #    Occupation            Energy/Eh            Energy/eV
      -------------------------------------------------------------
         1        2.0000           -0.7127286             -19.3943
       ...           ...                  ...                  ...
        70        2.0000           -0.3779602             -10.2848
        71        2.0000           -0.3740685             -10.1789
        72        2.0000           -0.3735543             -10.1649
        73        2.0000           -0.3644522              -9.9172
        74        2.0000           -0.3604979              -9.8096
        75        2.0000           -0.3542017              -9.6383
        76        2.0000           -0.3394307              -9.2364 (HOMO)
        77        0.0000           -0.3184348              -8.6651 (LUMO)
        78                         -0.2883350              -7.8460
        79                         -0.2827727              -7.6946
        80                         -0.2555115              -6.9528
        81                         -0.2424162              -6.5965
       ...                                ...                  ...
       144                          1.5486027              42.1396
      -------------------------------------------------------------
                  HL-Gap            0.0209959 Eh            0.5713 eV
             Fermi-level           -0.3289327 Eh           -8.9507 eV

 SCC (total)                   0 d,  0 h,  0 min,  0.066 sec
 SCC setup                      ...        0 min,  0.000 sec (  0.558%)
 Dispersion                     ...        0 min,  0.001 sec (  1.446%)
 classical contributions        ...        0 min,  0.000 sec (  0.144%)
 integral evaluation            ...        0 min,  0.005 sec (  7.821%)
 iterations                     ...        0 min,  0.052 sec ( 79.251%)
 molecular gradient             ...        0 min,  0.007 sec ( 10.047%)
 printout                       ...        0 min,  0.000 sec (  0.669%)

         :::::::::::::::::::::::::::::::::::::::::::::::::::::
         ::                     SUMMARY                     ::
         :::::::::::::::::::::::::::::::::::::::::::::::::::::
         :: total energy             -82.830572682350 Eh    ::
         :: gradient norm              0.026265576302 Eh/a0 ::
         :: HOMO-LUMO gap              0.571326339020 eV    ::
         ::.................................................::
         :: SCC energy               -84.102430118408 Eh    ::
         :: -> isotropic ES            0.095730857584 Eh    ::
         :: -> anisotropic ES          0.001717416360 Eh    ::
         :: -> anisotropic XC          0.035587051875 Eh    ::
         :: -> dispersion             -0.068304722629 Eh    ::
         :: repulsion energy           1.271857436057 Eh    ::
         :: add. restraining           0.000000000000 Eh    ::
         :: total charge               0.000000000006 e     ::
         :::::::::::::::::::::::::::::::::::::::::::::::::::::

           -------------------------------------------------
          |                Property Printout                |
           -------------------------------------------------

    * Orbital Energies and Occupations

         #    Occupation            Energy/Eh            Energy/eV
      -------------------------------------------------------------
         1        2.0000           -0.7127286             -19.3943
       ...           ...                  ...                  ...
        64        2.0000           -0.4054371             -11.0325
        65        2.0000           -0.4037668             -10.9871
        66        2.0000           -0.4033947             -10.9769
        67        2.0000           -0.4015871             -10.9277
        68        2.0000           -0.3907271             -10.6322
        69        2.0000           -0.3788178             -10.3082
        70        2.0000           -0.3779602             -10.2848
        71        2.0000           -0.3740685             -10.1789
        72        2.0000           -0.3735543             -10.1649
        73        2.0000           -0.3644522              -9.9172
        74        2.0000           -0.3604979              -9.8096
        75        2.0000           -0.3542017              -9.6383
        76        2.0000           -0.3394307              -9.2364 (HOMO)
        77        0.0000           -0.3184348              -8.6651 (LUMO)
        78                         -0.2883350              -7.8460
        79                         -0.2827727              -7.6946
        80                         -0.2555115              -6.9528
        81                         -0.2424162              -6.5965
        82                         -0.2203320              -5.9955
        83                         -0.2108568              -5.7377
        84                         -0.1953661              -5.3162
        85                         -0.1942024              -5.2845
        86                         -0.1649749              -4.4892
        87                         -0.1321198              -3.5952
       ...                                ...                  ...
       144                          1.5486027              42.1396
      -------------------------------------------------------------
                  HL-Gap            0.0209959 Eh            0.5713 eV
             Fermi-level           -0.3289327 Eh           -8.9507 eV

     #   Z          covCN         q      C6AA      α(0)
     1   6 C        2.915    -0.029    28.722     8.788
     2   6 C        2.924    -0.008    28.225     8.712
     3   6 C        2.916    -0.036    28.905     8.816
     4   6 C        2.992     0.078    26.245     8.404
     5   7 N        2.647     0.003    21.226     6.842
     6   6 C        2.890     0.058    26.707     8.473
     7   6 C        3.007     0.080    26.191     8.395
     8   6 C        2.920    -0.037    28.913     8.818
     9   6 C        2.923    -0.010    28.268     8.719
    10   6 C        2.917    -0.031    28.783     8.798
    11   6 C        2.896     0.046    26.973     8.515
    12   7 N        2.639    -0.017    21.593     6.901
    13   1 H        0.926     0.061     2.193     2.316
    14   1 H        0.926     0.053     2.283     2.363
    15   1 H        0.926     0.049     2.336     2.390
    16   1 H        0.925     0.116     1.645     2.005
    17   1 H        0.926     0.054     2.276     2.359
    18   1 H        0.926     0.056     2.247     2.344
    19   1 H        0.926     0.060     2.196     2.317
    20   1 H        0.926     0.087     1.905     2.158
    21   1 H        0.926     0.024     2.671     2.555
    22  28 Ni       3.359    -0.280   189.131    28.376
    23   6 C        3.692     0.040    20.079     6.412
    24   7 N        2.754    -0.125    23.713     7.232
    25   1 H        0.922     0.054     2.277     2.360
    26   1 H        0.925     0.027     2.629     2.536
    27   6 C        2.983     0.023    27.488     8.600
    28   6 C        2.674     0.415    20.016     7.321
    29   6 C        2.925    -0.024    28.594     8.769
    30   6 C        2.910     0.074    26.348     8.417
    31   8 O        1.600    -0.330    19.562     5.969
    32   6 C        2.920    -0.029    28.735     8.790
    33   8 O        0.857    -0.475    23.232     6.462
    34   6 C        2.924    -0.044    29.093     8.845
    35   1 H        0.926     0.059     2.210     2.325
    36   1 H        0.926     0.029     2.599     2.521
    37   1 H        0.925     0.061     2.186     2.312
    38   6 C        2.922    -0.041    29.010     8.833
    39   1 H        0.926     0.029     2.597     2.520
    40   6 C        2.918    -0.031    28.771     8.796
    41   6 C        2.918    -0.032    28.801     8.800
    42   6 C        2.920    -0.033    28.831     8.805
    43   1 H        0.926     0.031     2.571     2.508
    44   1 H        0.926     0.023     2.691     2.565
    45   6 C        2.920    -0.034    28.846     8.807
    46   6 C        2.919    -0.041    29.029     8.835
    47   6 C        2.924    -0.052    29.295     8.876
    48   1 H        0.925     0.022     2.702     2.571
    49   1 H        0.926     0.029     2.598     2.521

 Mol. C6AA /au·bohr⁶  :      36676.982418
 Mol. C8AA /au·bohr⁸  :    1015957.259517
 Mol. α(0) /au        :        312.674424


Wiberg/Mayer (AO) data.
largest (>0.10) Wiberg bond orders for each atom

 ---------------------------------------------------------------------------
     #   Z sym  total        # sym  WBO       # sym  WBO       # sym  WBO
 ---------------------------------------------------------------------------
     1   6 C    3.977 --     2 C    1.427     6 C    1.421    13 H    0.968
     2   6 C    3.986 --     3 C    1.448     1 C    1.427    14 H    0.969
     3   6 C    3.989 --     2 C    1.448     4 C    1.380    15 H    0.963
                             6 C    0.102
     4   6 C    3.979 --     3 C    1.380     5 N    1.306     7 C    1.060
     5   7 N    3.530 --     6 C    1.401     4 C    1.306    22 Ni   0.557
     6   6 C    3.965 --     1 C    1.421     5 N    1.401    16 H    0.937
                             3 C    0.102
     7   6 C    3.978 --     8 C    1.388    12 N    1.287     4 C    1.060
     8   6 C    3.989 --     9 C    1.446     7 C    1.388    17 H    0.962
     9   6 C    3.980 --     8 C    1.446    10 C    1.416    18 H    0.968
    10   6 C    3.977 --    11 C    1.435     9 C    1.416    19 H    0.968
    11   6 C    3.972 --    10 C    1.435    12 N    1.383    20 H    0.939
    12   7 N    3.543 --    11 C    1.383     7 C    1.287    22 Ni   0.605
    13   1 H    0.996 --     1 C    0.968
    14   1 H    0.996 --     2 C    0.969
    15   1 H    0.997 --     3 C    0.963
    16   1 H    0.986 --     6 C    0.937
    17   1 H    0.997 --     8 C    0.962
    18   1 H    0.996 --     9 C    0.968
    19   1 H    0.996 --    10 C    0.968
    20   1 H    0.992 --    11 C    0.939
    21   1 H    0.999 --    47 C    0.964
    22  28 Ni   3.535 --    23 C    0.859    31 O    0.780    12 N    0.605
                             5 N    0.557
    23   6 C    3.931 --    27 C    0.992    24 N    0.938    25 H    0.887
                            22 Ni   0.859
    24   7 N    3.474 --    28 C    1.076    30 C    1.073    23 C    0.938
                            33 O    0.126
    25   1 H    0.995 --    23 C    0.887
    26   1 H    0.999 --    38 C    0.965
    27   6 C    3.988 --    38 C    1.387    29 C    1.368    23 C    0.992
                            45 C    0.105
    28   6 C    3.943 --    33 O    1.604    31 O    1.175    24 N    1.076
    29   6 C    3.992 --    40 C    1.460    27 C    1.368    37 H    0.935
                            41 C    0.108
    30   6 C    3.967 --    47 C    1.366    34 C    1.362    24 N    1.073
    31   8 O    2.346 --    28 C    1.175    22 Ni   0.780    33 O    0.136
    32   6 C    3.991 --    34 C    1.460    46 C    1.427    36 H    0.971
                            47 C    0.104
    33   8 O    1.970 --    28 C    1.604    31 O    0.136    24 N    0.126
    34   6 C    3.986 --    32 C    1.460    30 C    1.362    35 H    0.965
                            42 C    0.107
    35   1 H    0.996 --    34 C    0.965
    36   1 H    0.999 --    32 C    0.971
    37   1 H    0.996 --    29 C    0.935
    38   6 C    3.986 --    41 C    1.442    27 C    1.387    26 H    0.965
                            40 C    0.105
    39   1 H    0.998 --    41 C    0.971
    40   6 C    3.992 --    29 C    1.460    45 C    1.425    43 H    0.971
                            38 C    0.105
    41   6 C    3.991 --    38 C    1.442    45 C    1.441    39 H    0.971
                            29 C    0.108
    42   6 C    3.992 --    47 C    1.453    46 C    1.433    48 H    0.971
                            34 C    0.107
    43   1 H    0.999 --    40 C    0.971
    44   1 H    0.999 --    46 C    0.972
    45   6 C    3.987 --    41 C    1.441    40 C    1.425    49 H    0.972
                            27 C    0.105
    46   6 C    3.986 --    42 C    1.433    32 C    1.427    44 H    0.972
    47   6 C    3.986 --    42 C    1.453    30 C    1.366    21 H    0.964
                            32 C    0.104
    48   1 H    0.999 --    42 C    0.971
    49   1 H    0.999 --    45 C    0.972
 ---------------------------------------------------------------------------

Topologies differ in total number of bonds
Writing topology from bond orders to xtbtopo.mol

molecular dipole:
                 x           y           z       tot (Debye)
 q only:        3.131       0.199       3.617
   full:        3.476       0.168       4.283      14.028
molecular quadrupole (traceless):
                xx          xy          yy          xz          yz          zz
 q only:      -67.420       2.793     -42.970      39.740      -6.800     110.390
  q+dip:      -79.709       6.674     -51.247      41.722     -12.832     130.955
   full:      -81.009       2.139     -48.653      42.991      -9.385     129.663


           -------------------------------------------------
          | TOTAL ENERGY              -82.830572682350 Eh   |
          | GRADIENT NORM               0.026265576302 Eh/α |
          | HOMO-LUMO GAP               0.571326339020 eV   |
           -------------------------------------------------

------------------------------------------------------------------------
 * finished run on 2026/01/15 at 09:37:12.292     
------------------------------------------------------------------------
 total:
 * wall-time:     0 d,  0 h,  0 min,  0.082 sec
 *  cpu-time:     0 d,  0 h,  0 min,  1.227 sec
 * ratio c/w:    15.019 speedup
 SCF:
 * wall-time:     0 d,  0 h,  0 min,  0.066 sec
 *  cpu-time:     0 d,  0 h,  0 min,  1.031 sec
 * ratio c/w:    15.554 speedup

