      -----------------------------------------------------------      
     |                   =====================                   |     
     |                           x T B                           |     
     |                   =====================                   |     
     |                         S. Grimme                         |     
     |          Mulliken Center for Theoretical Chemistry        |     
     |                    University of Bonn                     |     
      -----------------------------------------------------------      

   * xtb version 6.7.0 (08769fc) compiled by 'albert@albert-system' on 2024-03-04

   xtb is free software: you can redistribute it and/or modify it under
   the terms of the GNU Lesser General Public License as published by
   the Free Software Foundation, either version 3 of the License, or
   (at your option) any later version.
   
   xtb is distributed in the hope that it will be useful,
   but WITHOUT ANY WARRANTY; without even the implied warranty of
   MERCHANTABILITY or FITNESS FOR A PARTICULAR PURPOSE.  See the
   GNU Lesser General Public License for more details.
   
   Cite this work as:
   * C. Bannwarth, E. Caldeweyher, S. Ehlert, A. Hansen, P. Pracht,
     J. Seibert, S. Spicher, S. Grimme, WIREs Comput. Mol. Sci., 2020, 11,
     e01493. DOI: 10.1002/wcms.1493
   
   for GFN2-xTB:
   * C. Bannwarth, S. Ehlert and S. Grimme., J. Chem. Theory Comput., 2019,
     15, 1652-1671. DOI: 10.1021/acs.jctc.8b01176
   for GFN1-xTB:
   * S. Grimme, C. Bannwarth, P. Shushkov, J. Chem. Theory Comput., 2017,
     13, 1989-2009. DOI: 10.1021/acs.jctc.7b00118
   for GFN0-xTB:
   * P. Pracht, E. Caldeweyher, S. Ehlert, S. Grimme, ChemRxiv, 2019, preprint.
     DOI: 10.26434/chemrxiv.8326202.v1
   for GFN-FF:
   * S. Spicher and S. Grimme, Angew. Chem. Int. Ed., 2020, 59, 15665-15673.
     DOI: 10.1002/anie.202004239
   
   for ALPB and GBSA implicit solvation:
   * S. Ehlert, M. Stahn, S. Spicher, S. Grimme, J. Chem. Theory Comput.,
     2021, 17, 4250-4261. DOI: 10.1021/acs.jctc.1c00471
   
   for ddCOSMO and CPCM-X implicit solvation:
   * M. Stahn, S. Ehlert, S. Grimme, J. Phys. Chem. A,
     2023, XX, XXXX-XXXX. DOI: 10.1021/acs.jpca.3c04382
   
   for DFT-D4:
   * E. Caldeweyher, C. Bannwarth and S. Grimme, J. Chem. Phys., 2017,
     147, 034112. DOI: 10.1063/1.4993215
   * E. Caldeweyher, S. Ehlert, A. Hansen, H. Neugebauer, S. Spicher,
     C. Bannwarth and S. Grimme, J. Chem. Phys., 2019, 150, 154122.
     DOI: 10.1063/1.5090222
   * E. Caldeweyher, J.-M. Mewes, S. Ehlert and S. Grimme, Phys. Chem. Chem. Phys.
     2020, 22, 8499-8512. DOI: 10.1039/D0CP00502A
   
   for sTDA-xTB:
   * S. Grimme and C. Bannwarth, J. Chem. Phys., 2016, 145, 054103.
     DOI: 10.1063/1.4959605
   
   in the mass-spec context:
   * V. Asgeirsson, C. Bauer and S. Grimme, Chem. Sci., 2017, 8, 4879.
     DOI: 10.1039/c7sc00601b
   * J. Koopman and S. Grimme, ACS Omega 2019, 4, 12, 15120-15133.
     DOI: 10.1021/acsomega.9b02011
   
   for metadynamics refer to:
   * S. Grimme, J. Chem. Theory Comput., 2019, 155, 2847-2862
     DOI: 10.1021/acs.jctc.9b00143
   
   for SPH calculations refer to:
   * S. Spicher and S. Grimme, J. Chem. Theory Comput., 2021, 17, 1701-1714
     DOI: 10.1021/acs.jctc.0c01306
   
   for ONIOM refer to:
   * C. Plett, A. Katbashev, S. Ehlert, S. Grimme, M. Bursch,
     Phys. Chem. Chem. Phys., 2023, 25, 17860-17868. DOI: 10.1039/D3CP02178E
   
   for DIPRO refer to:
   * J. Kohn, N. Gildemeister, S. Grimme, D. Fazzi, A. Hansen,
     J. Chem. Phys., 2023, just accepted.
   
   for PTB refer to:
   * S. Grimme, M. Mueller, A. Hansen, J. Chem. Phys., 2023, 158, 124111.
     DOI: 10.1063/5.0137838
   
   with help from (in alphabetical order)
   P. Atkinson, C. Bannwarth, F. Bohle, G. Brandenburg, E. Caldeweyher
   M. Checinski, S. Dohm, S. Ehlert, S. Ehrlich, I. Gerasimov, C. Hölzer
   A. Katbashev, J. Kohn, J. Koopman, C. Lavigne, S. Lehtola, F. März, M. Müller,
   F. Musil, H. Neugebauer, J. Pisarek, C. Plett, P. Pracht, F. Pultar,
   J. Seibert, P. Shushkov, S. Spicher, M. Stahn, M. Steiner, T. Strunk,
   J. Stückrath, T. Rose, and J. Unsleber
   
 * started run on 2026/01/22 at 15:01:29.342     
   ID    Z sym.   atoms
    1    6 C      1-5, 8-11, 13, 14, 16-20, 24, 26-32, 34-39
    2    7 N      6, 7, 12, 15, 21, 33
    3   28 Ni     22
    4    8 O      23, 25
    5    1 H      40-69
constraining bond 6 22 to    1.8525000 Å, actual value:    2.0038116 Å
constraining bond 21 22 to    1.8525000 Å, actual value:    2.0089332 Å
constraining bond 33 22 to    1.8525000 Å, actual value:    2.0057879 Å
constraining bond 23 22 to    1.8050000 Å, actual value:    1.9893355 Å
constraining angle 6 22 23 to   90.0000000°, actual value:   92.4807660°
constraining angle 6 22 33 to  180.0000000°, actual value:  176.2339152°
constraining angle 23 22 21 to  180.0000000°, actual value:  179.1074116°

           -------------------------------------------------
          |                Calculation Setup                |
           -------------------------------------------------

          program call               : /home/henryteahan/opt/xtb-6.7.0/xtb-dist/bin/xtb sep_embed_final.xyz --opt verytight --iterations 1000 --input constrain2.inp --gfn2 --parallel 12 --chrg 0
          coordinate file            : sep_embed_final.xyz
          omp threads                :                    12


           -------------------------------------------------
          |                 G F N 2 - x T B                 |
           -------------------------------------------------

        Reference                      10.1021/acs.jctc.8b01176
      * Hamiltonian:
        H0-scaling (s, p, d)           1.850000    2.230000    2.230000
        zeta-weighting                 0.500000
      * Dispersion:
        s8                             2.700000
        a1                             0.520000
        a2                             5.000000
        s9                             5.000000
      * Repulsion:
        kExp                           1.500000    1.000000
        rExp                           1.000000
      * Coulomb:
        alpha                          2.000000
        third order                    shell-resolved
        anisotropic                    true
        a3                             3.000000
        a5                             4.000000
        cn-shift                       1.200000
        cn-exp                         4.000000
        max-rad                        5.000000

q/qsh data taken from xtbrestart
CAMM data taken from xtbrestart

          ...................................................
          :                      SETUP                      :
          :.................................................:
          :  # basis functions                 192          :
          :  # atomic orbitals                 191          :
          :  # shells                          109          :
          :  # electrons                       202          :
          :  max. iterations                  1000          :
          :  Hamiltonian                  GFN2-xTB          :
          :  restarted?                       true          :
          :  GBSA solvation                  false          :
          :  PC potential                    false          :
          :  electronic temp.          300.0000000     K    :
          :  accuracy                    1.0000000          :
          :  -> integral cutoff          0.2500000E+02      :
          :  -> integral neglect         0.1000000E-07      :
          :  -> SCF convergence          0.1000000E-05 Eh   :
          :  -> wf. convergence          0.1000000E-03 e    :
          :  Broyden damping             0.4000000          :
          :  net charge                          0          :
          :  unpaired electrons                  0          :
          ...................................................

 iter      E             dE          RMSdq      gap      omega  full diag
   1   -111.5156711 -0.111516E+03  0.506E+00    0.77       0.0  T
   2   -111.5000428  0.156284E-01  0.349E+00    0.76       1.0  T
   3   -111.4944385  0.560427E-02  0.219E+00    0.79       1.0  T
   4   -111.6269914 -0.132553E+00  0.811E-01    0.58       1.0  T
   5   -111.6540125 -0.270211E-01  0.434E-01    0.54       1.0  T
   6   -111.6571418 -0.312925E-02  0.352E-01    0.52       1.0  T
   7   -111.6516222  0.551959E-02  0.360E-01    0.58       1.0  T
   8   -111.6577718 -0.614960E-02  0.137E-01    0.55       1.0  T
   9   -111.6583246 -0.552883E-03  0.678E-02    0.54       1.0  T
  10   -111.6584019 -0.772560E-04  0.300E-02    0.55       1.0  T
  11   -111.6584200 -0.181284E-04  0.176E-02    0.55       1.0  T
  12   -111.6584211 -0.102199E-05  0.134E-02    0.55       1.0  T
  13   -111.6584265 -0.542912E-05  0.426E-03    0.55       2.8  T
  14   -111.6584268 -0.347372E-06  0.238E-03    0.55       5.0  T
  15   -111.6584269 -0.662778E-07  0.126E-03    0.55       9.6  T
  16   -111.6584269  0.288291E-08  0.912E-04    0.55      13.2  T
  17   -111.6584269 -0.349422E-07  0.401E-04    0.55      30.0  T

   *** convergence criteria satisfied after 17 iterations ***

         #    Occupation            Energy/Eh            Energy/eV
      -------------------------------------------------------------
         1        2.0000           -0.7245314             -19.7155
       ...           ...                  ...                  ...
        95        2.0000           -0.3687768             -10.0349
        96        2.0000           -0.3619659              -9.8496
        97        2.0000           -0.3566259              -9.7043
        98        2.0000           -0.3560927              -9.6898
        99        2.0000           -0.3507457              -9.5443
       100        2.0000           -0.3476414              -9.4598
       101        1.9999           -0.3244646              -8.8291 (HOMO)
       102        0.0001           -0.3043366              -8.2814 (LUMO)
       103                         -0.2883882              -7.8474
       104                         -0.2689550              -7.3186
       105                         -0.2524644              -6.8699
       106                         -0.2469494              -6.7198
       ...                                ...                  ...
       191                          1.2743202              34.6760
      -------------------------------------------------------------
                  HL-Gap            0.0201280 Eh            0.5477 eV
             Fermi-level           -0.3144006 Eh           -8.5553 eV

 SCC (total)                   0 d,  0 h,  0 min,  0.138 sec
 SCC setup                      ...        0 min,  0.001 sec (  0.369%)
 Dispersion                     ...        0 min,  0.001 sec (  1.026%)
 classical contributions        ...        0 min,  0.000 sec (  0.070%)
 integral evaluation            ...        0 min,  0.008 sec (  5.826%)
 iterations                     ...        0 min,  0.114 sec ( 82.563%)
 molecular gradient             ...        0 min,  0.013 sec (  9.504%)
 printout                       ...        0 min,  0.001 sec (  0.610%)

         :::::::::::::::::::::::::::::::::::::::::::::::::::::
         ::                     SUMMARY                     ::
         :::::::::::::::::::::::::::::::::::::::::::::::::::::
         :: total energy            -109.961130471785 Eh    ::
         :: gradient norm              0.269130787696 Eh/a0 ::
         :: HOMO-LUMO gap              0.547710629186 eV    ::
         ::.................................................::
         :: SCC energy              -111.654563035481 Eh    ::
         :: -> isotropic ES            0.114137214027 Eh    ::
         :: -> anisotropic ES          0.005903396274 Eh    ::
         :: -> anisotropic XC          0.059430501889 Eh    ::
         :: -> dispersion             -0.099388431721 Eh    ::
         :: repulsion energy           1.617264539745 Eh    ::
         :: add. restraining           0.076168023951 Eh    ::
         :: total charge              -0.000000000003 e     ::
         :::::::::::::::::::::::::::::::::::::::::::::::::::::

      ----------------------------------------------------------- 
     |                   =====================                   |
     |                        A N C O P T                        |
     |                   =====================                   |
     |               Approximate Normal Coordinate               |
     |                Rational Function Optimizer                |
      ----------------------------------------------------------- 
      ----------------------------------------------------------- 
     |                   =====================                   |
     |                        A N C O P T                        |
     |                   =====================                   |
     |               Approximate Normal Coordinate               |
     |                Rational Function Optimizer                |
      ----------------------------------------------------------- 

          ...................................................
          :                      SETUP                      :
          :.................................................:
          :   optimization level         verytight          :
          :   max. optcycles                  1380          :
          :   ANC micro-cycles                  20          :
          :   degrees of freedom               201          :
          :.................................................:
          :   RF solver                   davidson          :
          :   write xtbopt.log                true          :
          :   linear?                        false          :
          :   energy convergence         0.1000000E-06 Eh   :
          :   grad. convergence          0.2000000E-03 Eh/α :
          :   maxmium RF displ.          1.0000000          :
          :   Hlow (freq-cutoff)         0.1000000E-01      :
          :   Hmax (freq-cutoff)         5.0000000          :
          :   S6 in model hess.         20.0000000          :
          ...................................................

generating ANC from model Hessian ...
Using Lindh-Hessian (1995)
