69
 energy: -13.251040125991 gnorm: 0.007223637841 xtb: 6.7.0 (08769fc)
C           -1.65380399623324        0.08070820597940        0.27861603287653
C           -2.97760086523285        0.68774045094703        0.03305710577665
C           -3.33720482300334        1.97350732346665        0.32282036842649
C           -4.66711476597448        2.14644019562967       -0.09710271369097
C           -5.49762713929447        3.35453940518799        0.10504092973448
N           -5.13615230680230        0.99778838950349       -0.61110698961830
N           -4.11561860872213        0.10967595017966       -0.51326418633483
C           -4.38827502571331       -1.23286519139728       -1.07427900311620
C           -3.27811361488273       -2.24127909811277       -1.17574130817315
C           -2.90566011322685       -2.80870470995142       -2.37595433306023
C           -1.93365726953827       -3.78225621433485       -2.39403868432372
N           -1.32012572424185       -4.25322043361749       -1.32392239324978
C           -1.71573997300048       -3.73424669713356       -0.17431134020871
C           -2.67537149291495       -2.75619219214212       -0.04733713919694
N           -5.06782943042999       -0.94235733501332       -2.34783455654747
C           -4.49640777795317       -0.23642893901555       -3.40258453052271
C           -3.09220983604376        0.21676369882591       -3.51428484558536
C           -5.54643086580642        0.22345760607487       -4.14714767832808
C           -6.72581164614038       -0.17298078811904       -3.49387206080823
C           -8.10177803475787        0.15915236149689       -3.92189632078560
N           -6.41918700012283       -0.78386547260639       -2.33276895636936
Ni          -6.96943510522081        0.19063790071815       -0.66442184221422
O           -7.54016994339591        1.16500298943688        0.97336005994915
C           -8.72869577893375        1.53769370588021        0.60861748246609
O           -9.19826681412541        2.66213289389749        0.79094987395256
C           -9.61429667156533        0.47204475309803       -0.06164994912384
C          -10.55543014023442        1.00462791973851       -1.12290551479778
C          -11.14595384808104        2.25449054865502       -1.03382011946596
C          -12.07437311584148        2.67404161897385       -1.96371339658038
C          -12.42375211708507        1.84478657035167       -3.00741728326165
C          -11.84712420015566        0.59567677344821       -3.11214773153067
C          -10.92903900367370        0.18046552164477       -2.17107906843324
N           -8.81087293036677       -0.60076774618484       -0.58716744914393
C           -8.49459886184309       -1.72484262584635        0.14197997669745
C           -8.59864772357461       -1.76727372679153        1.54792807443556
C           -8.17071170129894       -2.86657501840258        2.24752947938817
C           -7.62963055495401       -3.95377151902623        1.58294546918267
C           -7.50919884317443       -3.93316544860533        0.20390245394008
C           -7.92926681067548       -2.83961510157408       -0.50932547679800
H           -1.65885037493963       -0.50884839617073        1.19628367361917
H           -0.88533172033528        0.84792140642525        0.38163789647943
H           -1.36307694332463       -0.56548324962838       -0.54951223064198
H           -2.71134079418660        2.73215535377020        0.76110012958663
H           -4.89574185568448        4.26082302520558        0.03777647414223
H           -5.97102218586194        3.32805426387244        1.08740318791706
H           -6.28983587371976        3.40121449280970       -0.64280458905809
H           -5.14950415133174       -1.67484861413185       -0.42118412576100
H           -3.40127726634958       -2.51670023254503       -3.28449407490165
H           -1.64738050626273       -4.22052832134823       -3.33899290860171
H           -1.24064790318956       -4.12599398281360        0.71235370004744
H           -2.97397553529059       -2.40292581159236        0.92495667647789
H           -2.82030640268137        0.39725226659187       -4.55500383792336
H           -2.95206953496896        1.14736907824849       -2.96078897092534
H           -2.39835508913291       -0.51437491246901       -3.10232309815512
H           -5.48406490455568        0.89102539328126       -4.98981134502814
H           -8.53969544035387        0.90008347022371       -3.25211387317055
H           -8.11433263057609        0.56953402003513       -4.93221130906186
H           -8.73223526838902       -0.73019652114691       -3.90835370606166
H          -10.25104962800023        0.04632039046596        0.72449512776593
H          -10.85485417242485        2.90773972147506       -0.23062571376240
H          -12.52121577308457        3.65191416337514       -1.87413316374208
H          -13.14503402839153        2.17150684576173       -3.73983610320973
H          -12.11352955963738       -0.05525217761313       -3.92895443164446
H          -10.47666612787207       -0.79530464136906       -2.23965762761203
H           -8.94411928749161       -0.89728406815543        2.07782415365433
H           -8.23395166338067       -2.87672352199691        3.32364745011819
H           -7.28603847673439       -4.80941326382308        2.14060119520048
H           -7.06752698456965       -4.77215153254772       -0.30854697918557
H           -7.79582344311834       -2.79573816951492       -1.57607701224277
