69
 energy: -109.979083678583 gnorm: 0.000101590962 xtb: 6.7.0 (08769fc)
C            2.63081658697978        1.87230202415963        1.50375659762914
C            3.63604326304921        2.73155979548282        0.81954439183845
C            4.12736710571158        3.94403867446239        1.24257797895399
C            5.06622319222437        4.34580214391460        0.27714663953518
C            5.87380788409825        5.59217441107680        0.24482269490555
N            5.15904441870720        3.45609724444713       -0.68516098561912
N            4.25947650905066        2.42396489210876       -0.34927199931414
C            3.86604411769820        1.13949820858153       -1.10175922790426
C            2.58841820996848        1.34562892423718       -1.90539245285221
C            1.78408151519529        2.47272165724661       -1.78020501535383
C            0.61259307640214        2.53598872600382       -2.51891381736004
N            0.20832015179154        1.58044302961619       -3.33520465031975
C            0.97397928306046        0.51102853427403       -3.45591571844049
C            2.16405591616355        0.33922727026922       -2.76750834973087
N            4.83179301284949        0.29704135396448       -1.87769913076166
C            5.18929550685701       -0.96200642049343       -1.48397015173804
C            4.69304725119227       -1.64529216700947       -0.25933875009836
C            6.07326928297820       -1.44820576903554       -2.41282491026042
C            6.23713534140071       -0.43812395930609       -3.37804897380752
C            7.08810803226286       -0.46954671398210       -4.59833219836164
N            5.51652050551982        0.62450395388585       -3.08433531932855
Ni           5.58017384713914        2.20058875778194       -2.04023499200869
O            4.25412240559223        2.95239965370639       -3.09778873912354
C            5.17529688024609        3.40438441014113       -3.65077079233753
O            5.90502242445901        3.96528436379135       -4.35508713685610
C            7.89527659006528        2.30385508612415       -1.85425757095944
C            8.73742511024845        3.37549877182626       -1.37390824926075
C            8.72779696415674        3.82565667031324       -0.04611355774270
C            9.56679425597769        4.84283002133155        0.35793026164520
C           10.43239215274184        5.44344286905648       -0.54337653295288
C           10.44338076362651        5.02094590075860       -1.86457519143502
C            9.60771090783128        4.00504775613082       -2.27608810548941
N            7.09850525641960        1.52238730675908       -1.13014786135286
C            7.44840505490077        1.09500690278270        0.12674091335028
C            6.56824017181572        0.90751021847043        1.19828624409833
C            6.98525403563126        0.31471347200666        2.37538181001596
C            8.28659997635324       -0.12481873015888        2.52852247382919
C            9.17522552928524        0.04690595877524        1.47631852090449
C            8.77231628978640        0.64203911072210        0.30450413591181
H            3.08046294844734        0.94247758920245        1.85704673568629
H            2.24617391346023        2.40674308974665        2.36837993697523
H            1.79534541413550        1.62600117392758        0.84859430781781
H            3.84904771285917        4.47369230041075        2.13034520186186
H            6.43471381774980        5.70415552801899        1.17020085450580
H            5.22143831933094        6.45770565762246        0.13518174439875
H            6.56856371719648        5.55737699443145       -0.59049545324129
H            3.60151941138512        0.47734696817389       -0.26858569651343
H            2.06189309669206        3.29962314272270       -1.14551380804571
H           -0.03511502883782        3.39988600277252       -2.45052876931238
H            0.61596849083143       -0.24828320522106       -4.13812219267514
H            2.75063029516082       -0.55512214348138       -2.91077564875676
H            5.03627318120082       -1.12758595952385        0.63770167990003
H            3.60420588146724       -1.71778965241231       -0.24171104240579
H            5.10039345042670       -2.65231310592524       -0.23851320031394
H            6.53774199180600       -2.41288697154246       -2.40788630812886
H            6.95836092828689        0.45221180804190       -5.15963286711112
H            8.13604559443829       -0.57430137601297       -4.32166037250940
H            6.81735737136439       -1.31536098709640       -5.22832225003478
H            7.96662419378038        2.08467380903849       -2.92673921738341
H            8.05022379917024        3.37778552919710        0.66455616776684
H            9.54736461219023        5.17435277023477        1.38671043589847
H           11.08871187472967        6.23819192862428       -0.22073210018100
H           11.10851374651455        5.49125942874517       -2.57475872250971
H            9.61498746053000        3.68365102773202       -3.30799786016823
H            5.55431506868090        1.26065304386220        1.13465286761618
H            6.27735434727754        0.20081953778881        3.18593554335942
H            8.60551148482664       -0.58908998793243        3.44915688541985
H           10.19802591630760       -0.28783196969742        1.57476766194406
H            9.46710120856313        0.76388071417355       -0.51334279565794
