69
 energy: -109.694739794436 gnorm: 0.316746429230 xtb: 6.7.0 (08769fc)
C            2.08390306804463        1.07499309993735        1.57416230589436
C            3.15682762192937        2.00468022167427        1.15619808072372
C            3.64947881924019        3.04998041902448        1.87423108215510
C            4.64967615353451        3.68416697881295        1.12480231553784
C            5.34550995773093        4.90828058369961        1.58122946215859
N            4.83530065472847        3.05360272008082       -0.04482897622867
N            3.85692135311563        1.99326968201769       -0.04601978114903
C            3.46666014861913        0.88731143327499       -1.14695037104181
C            2.52447267780345        1.52434259024280       -2.13290725784399
C            1.68730981779139        2.55539267862232       -1.76691238924738
C            0.83204808671850        3.10013503004904       -2.69486084655231
N            0.74354104795795        2.70802742440982       -3.95326499084619
C            1.56237884554328        1.73127605581741       -4.30169921394540
C            2.45048452498025        1.11991728905005       -3.44808452429407
N            4.49579448466323       -0.07303525931341       -1.92674929838475
C            4.10022437742290       -1.37746648779036       -2.21425964192802
C            2.79686532916658       -2.00497181449355       -1.90661932976191
C            5.16170532778392       -1.98450766607434       -2.81686352327489
C            6.19638869233616       -1.04904865849078       -2.95018582086030
C            7.55481168869769       -1.33728195818500       -3.46396637913256
N            5.81783853193745        0.12763523739775       -2.44589968522529
Ni           5.65191331213200        1.75448582736775       -1.31564176336817
O            4.92299578163374        2.74117716956301       -2.84630604151291
C            6.32205803628141        2.81523335298104       -3.01949167919677
O            6.83818389436546        3.33204897425052       -4.01061467505813
C            7.63389554738969        2.22598208236242       -1.95186513974148
C            8.42634127619371        3.45459686991767       -1.62633682546597
C            7.79151466840492        4.47233162603609       -0.94609481236332
C            8.44827885013986        5.64565410153984       -0.65826056431711
C            9.75673557716621        5.81091556099451       -1.05853616312502
C           10.40094081413885        4.80235630768533       -1.74346555835327
C            9.73797273924436        3.62693632436844       -2.02839676307758
N            7.42936928992269        1.33567534550816       -0.57510065518209
C            8.35743012703250        1.34748771208487        0.44216592047709
C            8.25298053289439        2.27877089553258        1.49203285749289
C            9.25652090470799        2.40796862581250        2.41636819489644
C           10.37965692770176        1.60287076521973        2.33702496150361
C           10.49288171818638        0.66233379453182        1.32674743280769
C            9.50225896176610        0.53197010595870        0.38707565491535
H            2.47214047115216        0.06383448304865        1.70173931794542
H            1.64587685336880        1.38452375948478        2.52373961809711
H            1.28182939734529        1.04250790071066        0.83579897976692
H            3.31121923209252        3.35820532910420        2.84836891081602
H            6.02379014962909        4.69007476801852        2.40676884867190
H            4.62603491804356        5.65421828923184        1.91904959601080
H            5.92286307962401        5.36240822388225        0.78035807277708
H            2.87951198855981        0.16424423510646       -0.56386198996863
H            1.73115438586624        2.94312591759441       -0.76490238326983
H            0.18633260846171        3.91497735060165       -2.40444859992189
H            1.51864538560513        1.41577143902265       -5.33297133579351
H            3.11495446862255        0.35339845943707       -3.80359211312127
H            2.77372769751582       -2.37346079053676       -0.88096091602485
H            1.97764594272583       -1.29695067453641       -2.03357039622407
H            2.60335823420412       -2.84774716425375       -2.57156562764349
H            5.18779093091120       -3.00279179465638       -3.16426132177693
H            7.93808696000074       -0.49332547488767       -4.03875101810257
H            8.24299968226186       -1.52821669537049       -2.63784717233468
H            7.55351451167062       -2.21366792426842       -4.11319896500234
H            8.23280042349089        1.57401557921422       -2.60805420092273
H            6.76617509648413        4.31011277299679       -0.66453970029739
H            7.93608111117308        6.43463882172164       -0.13366767594383
H           10.27524209476313        6.73094905446170       -0.84296461222352
H           11.41814841785025        4.94007852856542       -2.07134774324745
H           10.22927475539992        2.84580735174303       -2.58188225909965
H            7.37425145006688        2.89596489793555        1.53405890906669
H            9.17563154587036        3.14430332331069        3.19906304665506
H           11.17027075306104        1.71520966938618        3.06043140861474
H           11.36974611840310        0.03869193942492        1.27102652957646
H            9.58996416611473       -0.18194961713498       -0.41265680510851
69
 energy: -109.775549510111 gnorm: 0.151199841015 xtb: 6.7.0 (08769fc)
C            2.08947077590332        1.07025633683316        1.55910948867452
C            3.17618625810977        1.99348280462829        1.13281524347106
C            3.66017860828788        3.04824541425368        1.85303524509656
C            4.67062830841529        3.65831092318252        1.08670265093505
C            5.35148648001131        4.89925953707732        1.56050394873156
N            4.87791052823878        3.00120638326153       -0.07329256814075
N            3.89288250613828        1.95400097560135       -0.05108090057553
C            3.49872900482268        0.89715401603804       -1.15485698981868
C            2.54641568292849        1.53625898807144       -2.13875514690220
C            1.69154321045734        2.56116898490975       -1.75923979734363
C            0.82932593118743        3.10401825138725       -2.69207853445463
N            0.74662087093820        2.70490022608062       -3.94887190182981
C            1.56180128960288        1.72864446124999       -4.30747194529511
C            2.45964555113253        1.11554118326388       -3.45586604583318
N            4.50594672290140       -0.06495833351700       -1.90452547707598
C            4.10756568576862       -1.35732980412426       -2.19845191509417
C            2.79500833450645       -1.99027423068752       -1.89930768765310
C            5.16409064882745       -1.96746767245913       -2.81596921516053
C            6.19515368140741       -1.01659888322559       -2.92462034461792
C            7.55022982296747       -1.31884322063170       -3.46204265003414
N            5.82408338582925        0.15940229752894       -2.40777007770719
Ni           5.69798131162254        1.77315235978710       -1.33644272088303
O            4.93887214596260        2.68547743912101       -2.76543563011556
C            6.28302520877994        2.81163284804633       -3.00948029687226
O            6.79153240592682        3.31948439383763       -3.98012916149697
C            7.63515535290416        2.20290337835868       -1.90487336723204
C            8.41781562084830        3.44753433551803       -1.62500195329931
C            7.78720161952352        4.47316402722263       -0.94241034613408
C            8.44764954720586        5.64827851780878       -0.65466155683987
C            9.75922775968625        5.81268087471605       -1.05703382064577
C           10.40039237875318        4.79902138495787       -1.74491816784369
C            9.73433284649103        3.62073620886003       -2.03156709707664
N            7.35398839135032        1.28688984375846       -0.56302642347869
C            8.33437705556941        1.37340633260726        0.41829501819576
C            8.24400601396681        2.28349156208858        1.48514827059930
C            9.25096052519187        2.40426676802542        2.41759251076293
C           10.37761786956855        1.60364712806515        2.33648064445596
C           10.47918957911008        0.66710784585242        1.32145811776367
C            9.47793307731446        0.54357136063440        0.37643745399954
H            2.47246828415730        0.05893150936966        1.70020258241068
H            1.66180224959189        1.39224239001350        2.51025155845127
H            1.27954471987735        1.03865582155341        0.83020017197474
H            3.31901550528148        3.36115328844118        2.82747820962092
H            6.01868174300922        4.68475835792157        2.39829854011770
H            4.62250568957613        5.63439037824426        1.91143126417792
H            5.93041759898155        5.36451097264908        0.77252285263212
H            2.91527484154208        0.17549378848485       -0.56327638748026
H            1.72568276513615        2.95237805218754       -0.75725072958262
H            0.17924225256692        3.91858800005329       -2.40668085147837
H            1.51252944395044        1.41743889357183       -5.34047024747634
H            3.11719897957181        0.34664827095405       -3.81872137514869
H            2.77190598269031       -2.37088741607667       -0.87717762810932
H            1.97031457944211       -1.29229461671881       -2.03207284387079
H            2.61789871881150       -2.83570328557860       -2.56652730090431
H            5.19009317940980       -2.98659776873003       -3.16481087020011
H            7.93966294317447       -0.48234387079578       -4.03682353778260
H            8.23757576621857       -1.51981452155719       -2.63847822942121
H            7.53879260041372       -2.20197086839405       -4.10468150852034
H            8.19914367387024        1.56736481852822       -2.60274663203420
H            6.75850960306531        4.31659482754884       -0.66633929984831
H            7.93634775799400        6.44106436016296       -0.13088857905128
H           10.27846956696607        6.73417039243436       -0.84321846413966
H           11.41994356239891        4.93619269234375       -2.07177619076899
H           10.23158351803023        2.83902774113943       -2.58313102702761
H            7.36560133093844        2.90152448318091        1.53756400070921
H            9.17433013617793        3.14364143159885        3.20141314718982
H           11.17190188817546        1.71380047113454        3.05953583815410
H           11.35935602338894        0.03980642849598        1.26526383246696
H            9.57717609681999       -0.17714327031201       -0.42027314823654
69
 energy: -109.813949549210 gnorm: 0.085634816513 xtb: 6.7.0 (08769fc)
C            2.10386508030292        1.06200246660731        1.53470762909543
C            3.20545869778327        1.97533278080597        1.09892038677868
C            3.67673323363521        3.04292363694000        1.81865922041872
C            4.69846098311709        3.63260455030774        1.04913610351474
C            5.36262690718917        4.88678075323769        1.53514684623418
N            4.91646621026263        2.96123801698314       -0.09790960726036
N            3.93887004312113        1.90993568568602       -0.06306442235974
C            3.53543744444103        0.90072659504562       -1.15522987920110
C            2.57550335428256        1.54928973720917       -2.14321676323346
C            1.70657064053834        2.56699940340876       -1.75176402302784
C            0.83341925415235        3.10509042121358       -2.68588711791661
N            0.75422191191309        2.69957769095063       -3.93986453975319
C            1.56583837267203        1.72602916512615       -4.30935915169386
C            2.47608825037738        1.11483064708532       -3.46100035767668
N            4.51684572573749       -0.05102921071848       -1.87803890398246
C            4.11692605972698       -1.32960267927833       -2.17733453158975
C            2.79663365572829       -1.96731629531343       -1.88701579409494
C            5.16743537312737       -1.94413930098636       -2.81170289725675
C            6.19406658387414       -0.98594239400931       -2.90571454260269
C            7.54653067321021       -1.29378786798101       -3.45870589974944
N            5.82465650027506        0.18360588997019       -2.38885328488632
Ni           5.74946062143871        1.79591674069376       -1.35820267866514
O            4.93139950562618        2.65022169225731       -2.70985665672202
C            6.19741974137750        2.80465640798846       -2.99877381403942
O            6.73319656754040        3.30890154714818       -3.93614036933243
C            7.63368851410083        2.16798580884475       -1.84993945131286
C            8.41036212750043        3.42305646641564       -1.60110246113620
C            7.78363149058670        4.46916741267722       -0.93494771534282
C            8.44529468713437        5.64850582348726       -0.65608407211081
C            9.75930432828525        5.80960701700615       -1.05792876774132
C           10.39222073095692        4.79021322106089       -1.74946728708636
C            9.72565560301034        3.60615836525398       -2.02656887079886
N            7.30896394463008        1.25236905030720       -0.54627220545887
C            8.30347669284743        1.38179456612082        0.42603718602738
C            8.23294436525766        2.28971470356158        1.48540957808579
C            9.24688238904604        2.40800201793721        2.41614742642046
C           10.37181474097899        1.60645792312097        2.33318790918810
C           10.46187110113075        0.67779694077224        1.30961098896481
C            9.45069978592500        0.56121208605745        0.36877413342696
H            2.47604025172138        0.04921405311804        1.69142260193239
H            1.69165535532716        1.40452909281684        2.48634642418485
H            1.28348290616156        1.03249823465934        0.81804089736771
H            3.32979555029711        3.36325819393906        2.78720713373633
H            6.01812526665803        4.67215044432201        2.38267132108061
H            4.61400448872054        5.59917133413437        1.89596583324207
H            5.94131309013701        5.37090104616948        0.76150227590964
H            2.94646023179313        0.18221044204411       -0.56381513070553
H            1.72641994958015        2.96062975513482       -0.74895071970765
H            0.17336476087279        3.91549540703175       -2.40601951526035
H            1.50354705954268        1.41720957130491       -5.34370794147860
H            3.12241510143651        0.33994031145633       -3.83414869303384
H            2.77076251288906       -2.35942210354824       -0.86892127405212
H            1.96439334449651       -1.28173071548713       -2.02754850521066
H            2.64279194065474       -2.81424343849117       -2.55881384550697
H            5.19276663493335       -2.96014886880864       -3.16327205690554
H            7.94084434906202       -0.46432008790663       -4.03610703363704
H            8.23304186873556       -1.50193395361380       -2.63679203950520
H            7.51581967665171       -2.18222012295041       -4.09279109984531
H            8.15772092429791        1.54650986268965       -2.58834592744837
H            6.75029677058960        4.32587682831743       -0.66643236472289
H            7.93751806994205        6.44576679414256       -0.13118408412242
H           10.28163892957410        6.73123019720501       -0.84441008209904
H           11.41456088120645        4.92556610965797       -2.07475213430669
H           10.22929499516662        2.82723169856239       -2.57965082562268
H            7.35592151445020        2.91248541691573        1.54708314347657
H            9.16939454164864        3.14267846038805        3.20597294812731
H           11.16888624638869        1.70902695704270        3.05653116153657
H           11.33880819684499        0.04195619273005        1.25126237566411
H            9.55710569676477       -0.16395759614066       -0.42692018515492
69
 energy: -109.838441296529 gnorm: 0.087718027366 xtb: 6.7.0 (08769fc)
C            2.12750898722190        1.05071940679464        1.50502300159386
C            3.24055570732707        1.95422274238702        1.06701548622096
C            3.69703604085592        3.03106192010623        1.78577540043933
C            4.72429303719594        3.61510992378714        1.02346476729529
C            5.37505560463076        4.87543281956345        1.51159120836129
N            4.94942722267339        2.94590830536082       -0.11069737835530
N            3.98976640278755        1.87587278898566       -0.07592885473429
C            3.57118815799533        0.90395573379431       -1.15681795045618
C            2.60327961617224        1.56014754477768       -2.14778355450269
C            1.72895943895202        2.57258371143767       -1.74705380670661
C            0.84384485813274        3.10407961516929       -2.67794269086842
N            0.76278514788373        2.69330696317297       -3.92921118268806
C            1.57359042157931        1.72394446751475       -4.30811770518547
C            2.49553242302725        1.11757972580037       -3.46474023128237
N            4.53245633477763       -0.03521007822765       -1.85976739560225
C            4.12836265528602       -1.30482295891974       -2.15608255438311
C            2.80326335790496       -1.94088909480043       -1.86967653002397
C            5.17102317842040       -1.92423497954606       -2.80322516464312
C            6.19494345791574       -0.96595260227616       -2.89908792393977
C            7.54499142916985       -1.26743110609500       -3.45799115748930
N            5.82903028661711        0.19759973142407       -2.39078121333318
Ni           5.79024496760217        1.81644736316522       -1.37725881459625
O            4.88324739834199        2.63089190001218       -2.68367737474633
C            6.07857908019760        2.81746246843717       -2.98636383599693
O            6.66752379623436        3.30584566770124       -3.89644342412568
C            7.63957480908113        2.12356116671515       -1.78600686439728
C            8.40353570821404        3.39222811319599       -1.57112682604633
C            7.78090886755981        4.45860027304823       -0.92443054276652
C            8.44285424477799        5.64184992002287       -0.65783625181200
C            9.75783547186908        5.79878043668838       -1.06023313677826
C           10.38124436654377        4.77263142378670       -1.75224871165543
C            9.71454663226925        3.58429818109236       -2.01610946940662
N            7.29674791754456        1.22771852415484       -0.53257618484797
C            8.27689862194705        1.38776263099741        0.44714101873886
C            8.21470849969788        2.29714988832813        1.49779866933632
C            9.23746904264645        2.41311004520998        2.42156843603921
C           10.36077116014800        1.61033648900087        2.33059187387010
C           10.44121134181998        0.68713181113146        1.30036300893849
C            9.42242860100603        0.57504580029739        0.36887387203806
H            2.48538475911372        0.03499698853802        1.67420568435303
H            1.73030302768303        1.41525541095674        2.45472955432314
H            1.29906049602365        1.02546824984990        0.79721091428975
H            3.33831986267297        3.36162711933794        2.74321665480827
H            6.02426170205959        4.65839950612564        2.36197987537120
H            4.60506746048134        5.56202043081379        1.87594504131565
H            5.95098125341158        5.37840439584658        0.74835674961895
H            2.97530281704439        0.18874438549392       -0.56872644835375
H            1.73804109479665        2.96764049621106       -0.74320030256895
H            0.17149850018294        3.90674509557316       -2.40099785227412
H            1.49471519234669        1.41452320015843       -5.34230287743193
H            3.13159751231504        0.33689656963578       -3.84806065947011
H            2.77071806983728       -2.33764591608169       -0.85378572957508
H            1.96516263270677       -1.26446363672267       -2.01989572151694
H            2.67056271046949       -2.78773247904361       -2.54530412909681
H            5.19288776178885       -2.93570985560022       -3.15896514087403
H            7.93987929843687       -0.44013297574256       -4.03704841284129
H            8.23009505532843       -1.47589610061399       -2.63577317616651
H            7.49698493878075       -2.15791799209345       -4.08502950947149
H            8.11164948804419        1.51443840007942       -2.57064303806087
H            6.74211615273012        4.33292711698068       -0.66490728196142
H            7.93740997156689        6.44643421102012       -0.13874421017900
H           10.28355451445589        6.72069129475393       -0.85073937263055
H           11.40289095148436        4.90661638248478       -2.08328775598055
H           10.22259155664553        2.80716549530367       -2.56947086413713
H            7.34141780223170        2.92659834522716        1.56534888920746
H            9.16367171876431        3.14629846422392        3.21313663168950
H           11.16233845381127        1.70548853911491        3.05057325688777
H           11.31554053345970        0.04888387352398        1.23120110595205
H            9.52790341668443       -0.14615469871442       -0.43179788667307
69
 energy: -109.866422049878 gnorm: 0.119235496309 xtb: 6.7.0 (08769fc)
C            2.15553222830381        1.04004389541058        1.47401225354644
C            3.27918132945138        1.93366694555540        1.03369603276277
C            3.71647476439605        3.01742179272185        1.75384759162262
C            4.74641212821652        3.60364352569220        1.00186022584864
C            5.38476927710651        4.86676469132140        1.49121864791251
N            4.98608011394064        2.94407959895602       -0.11750587234221
N            4.05041420412220        1.84450884515438       -0.09003598503528
C            3.61156891612406        0.90808916563174       -1.15959814068269
C            2.62676832702222        1.56812118474911       -2.15135758431412
C            1.75155213085700        2.57610127897257       -1.74216571740077
C            0.85535056648673        3.10156316545577       -2.66887434689556
N            0.77199328662279        2.68642343507185       -3.91791328805260
C            1.58187218815061        1.72040135924761       -4.30533864162865
C            2.51327622074397        1.11879508233089       -3.46653177713193
N            4.55188881129332       -0.01562482362915       -1.84821069893468
C            4.14177434490902       -1.28008998702501       -2.13677425397183
C            2.81300551990607       -1.91391157258154       -1.85176631954304
C            5.17408630972463       -1.90694315666980       -2.79467117245574
C            6.19514764929670       -0.95003914499401       -2.90159150481870
C            7.54387095874817       -1.24250927035255       -3.46028265858697
N            5.83447490386721        0.21159930680405       -2.41126644588815
Ni           5.83705988985915        1.85032582685926       -1.41149939644909
O            4.78676918805620        2.62645497035439       -2.65642306834900
C            5.89809814346134        2.82270939114777       -3.00601909703192
O            6.59473016000041        3.30691729805706       -3.84566601533038
C            7.67879561399604        2.05131203368135       -1.68559612487702
C            8.40566976032653        3.35175543103977       -1.53127821184094
C            7.78259039466555        4.44112217708006       -0.91299172829533
C            8.44051164374368        5.63103551671870       -0.66219889687587
C            9.75663863847594        5.78616661899211       -1.06328869973446
C           10.37101813398640        4.75400785332508       -1.75545025716860
C            9.70782585259943        3.55998627221506       -2.00248563021990
N            7.30796585125313        1.21315430594473       -0.53261402548773
C            8.25152595489768        1.39740968763442        0.47437386583639
C            8.19347960428911        2.30720946341635        1.51564641706361
C            9.22702911200272        2.41886141413198        2.43015852389398
C           10.34776590925115        1.61429832778847        2.32978827840267
C           10.41916346656509        0.69575054206331        1.29390932395946
C            9.39342067981045        0.58968035077191        0.37307245810668
H            2.49604079392093        0.02082715937566        1.65450500296802
H            1.77282011720974        1.42547511480349        2.42059071970938
H            1.31914115026721        1.01964081731980        0.77470899431300
H            3.34466633922679        3.35779229297559        2.69937131556911
H            6.03036642907713        4.64629199619168        2.34128361557417
H            4.59596595895236        5.52711106582155        1.85697174880716
H            5.95701454695293        5.38827612535227        0.73823782924115
H            3.00452238876037        0.19790867028930       -0.57673997885512
H            1.75284879714743        2.97510661100337       -0.73854854521292
H            0.17198205442308        3.89743044878549       -2.39640918027772
H            1.48703534619028        1.41246300950501       -5.33953805230033
H            3.14141477077050        0.33491602370691       -3.86107908534017
H            2.77112164790378       -2.31231306075738       -0.83738168979359
H            1.96932077600582       -1.24629861928971       -2.01293208692588
H            2.69975950949424       -2.76055266568423       -2.52951273347393
H            5.19217078834613       -2.91458773176497       -3.15260903734566
H            7.93868439807737       -0.41559811319335       -4.03932397406694
H            8.22615605782425       -1.44840476843391       -2.63589226926073
H            7.48287269588253       -2.13379670961389       -4.08022188125342
H            8.06638373423794        1.47449106215441       -2.55059001210097
H            6.73826078879174        4.33495138234708       -0.66351226724442
H            7.93577528723982        6.44278727028327       -0.15045306369800
H           10.28480825214473        6.70842641417138       -0.85743162952928
H           11.39094065267274        4.88756358007207       -2.09379494611692
H           10.22101536964085        2.78562845014322       -2.55598440567549
H            7.32578036213161        2.94380640290924        1.58800534292292
H            9.15837249518477        3.15090274835234        3.22246822998130
H           11.15469525844725        1.70209984573167        3.04459488843603
H           11.29076790582606        0.05673978324116        1.21095820385220
H            9.49287615010657       -0.12490040500607       -0.43471511246034
69
 energy: -109.884567528957 gnorm: 0.098737527581 xtb: 6.7.0 (08769fc)
C            2.18100437433434        1.03204802206565        1.45081889501734
C            3.30824927018206        1.92182733981038        1.01632550142450
C            3.72970507889982        3.00779278890767        1.73666714506986
C            4.76037989326514        3.60305792237905        0.99507179535490
C            5.39154574466891        4.86476038844428        1.48007515770860
N            5.01414729482037        2.95582188153274       -0.11576501576958
N            4.09106611511556        1.83604671317221       -0.09943186753618
C            3.63415151049659        0.91005996300658       -1.16318134893340
C            2.63448925675571        1.56789958465386       -2.15202894987140
C            1.76620768090348        2.57626014351066       -1.73970829833528
C            0.86498829326768        3.09860996195570       -2.66217472727698
N            0.77760266153698        2.68242337377322       -3.91060004197727
C            1.58736748197661        1.71738572291996       -4.30168772739551
C            2.52124952756544        1.11801005168953       -3.46608159394737
N            4.56722885226724       -0.00153439451841       -1.85604159614902
C            4.15410335175519       -1.26843265738987       -2.12804061585399
C            2.82436845319348       -1.89466687263817       -1.83764950036983
C            5.17917179085486       -1.89912485314095       -2.78896663744177
C            6.19735979509852       -0.94318154899667       -2.91721782981191
C            7.54628978485028       -1.22569939728819       -3.46793857755827
N            5.83918871691665        0.22304952332915       -2.44745531610084
Ni           5.85222056970384        1.86926913439378       -1.44101680191319
O            4.66870047966810        2.61218984561453       -2.63528233702274
C            5.74858581340887        2.88274650109703       -3.02725855925403
O            6.50753067737092        3.29000847597436       -3.83913390257975
C            7.73041614948851        1.98826246998285       -1.60505661244643
C            8.41982238954342        3.31551757214072       -1.49218697197596
C            7.78952381325008        4.41830060384174       -0.90031987071225
C            8.44020748681257        5.61621018608100       -0.66746339972464
C            9.75649050605343        5.77188668985243       -1.06713160647074
C           10.36720711431959        4.73656202024407       -1.75674885894032
C            9.71085660956421        3.53633271849251       -1.98462091010382
N            7.33895389766948        1.22689213376411       -0.54810242758896
C            8.23441533533439        1.40414706985982        0.50349240183690