
                                 *****************
                                 * O   R   C   A *
                                 *****************

                                            #,                                       
                                            ###                                      
                                            ####                                     
                                            #####                                    
                                            ######                                   
                                           ########,                                 
                                     ,,################,,,,,                         
                               ,,#################################,,                 
                          ,,##########################################,,             
                       ,#########################################, ''#####,          
                    ,#############################################,,   '####,        
                  ,##################################################,,,,####,       
                ,###########''''           ''''###############################       
              ,#####''   ,,,,##########,,,,          '''####'''          '####       
            ,##' ,,,,###########################,,,                        '##       
           ' ,,###''''                  '''############,,,                           
         ,,##''                                '''############,,,,        ,,,,,,###''
      ,#''                                            '''#######################'''  
     '                                                          ''''####''''         
             ,#######,   #######,   ,#######,      ##                                
            ,#'     '#,  ##    ##  ,#'     '#,    #''#        ,####,    ,#,          
            ##       ##  ##   ,#'  ##            #'  '#       #'       ,# #          
            ##       ##  #######   ##           ,######,      #####,      #          
            '#,     ,#'  ##    ##  '#,     ,#' ,#      #,     #,   #      #          
             '#######'   ##     ##  '#######'  #'      '#     '####' #    #          



                #########################################################
                #                        -***-                          #
                #          Department of theory and spectroscopy        #
                #                                                       #
                #                      Frank Neese                      #
                #                                                       #
                #     Directorship, Architecture, Infrastructure        #
                #                    SHARK, DRIVERS                     #
                #        Core code/Algorithms in most modules           #
                #                                                       #
                #        Max Planck Institute fuer Kohlenforschung      #
                #                Kaiser Wilhelm Platz 1                 #
                #                 D-45470 Muelheim/Ruhr                 #
                #                      Germany                          #
                #                                                       #
                #                  All rights reserved                  #
                #                        -***-                          #
                #########################################################


                         Program Version 6.1.0  -  RELEASE   -
                                (GIT: $679e74b$)
                          ($2025-06-10 18:02:51 +0200$)


 With contributions from (in alphabetic order):
[Max-Planck-Institut fuer Kohlenforschung]                               
  Daniel Aravena         : Magnetic Suceptibility                        
  Michael Atanasov       : Ab Initio Ligand Field Theory (pilot matlab implementation)
  Alexander A. Auer      : GIAO ZORA, VPT2 properties, NMR spectrum      
  Ute Becker             : All parallelization in ORCA, NUMFREQ, NUMCALC 
  Giovanni Bistoni       : ED, misc. LED, open-shell LED, HFLD           
  Dmytro Bykov           : pre 5.0 version of the SCF Hessian            
  Marcos Casanova-Páez   : Triplet and SCS-CIS(D). UHF-(DLPNO)-IP/EA/STEOM-CCSD. UHF-CVS-IP/STEOM-CCSD   
  Vijay G. Chilkuri      : MRCI spin determinant printing, contributions to CSF-ICE 
  Pauline Colinet        : FMM embedding                                 
  Dipayan Datta          : RHF DLPNO-CCSD density                        
  Achintya Kumar Dutta   : EOM-CC, STEOM-CC                              
  Nicolas Foglia         : Exact transition moments, OPA infrastructure, MCD improvements    
  Dmitry Ganyushin       : Spin-Orbit,Spin-Spin,Magnetic field MRCI      
  Miquel Garcia-Rates    : C-PCM and meta-GGA Hessian, CCSD/C-PCM, Gaussian charge scheme 
  Tiago L. C. Gouveia    : GS-ROHF, GS-ROCIS                             
  Yang Guo               : DLPNO-NEVPT2, F12-NEVPT2, CIM, IAO-localization        
  Andreas Hansen         : Spin unrestricted coupled pair/coupled cluster methods 
  Ingolf Harden          : AUTO-CI MPn and infrastructure                
  Benjamin Helmich-Paris : MC-RPA, TRAH-(SCF,CASSCF), AVAS, COSX integrals, SCF dyn. polar., MC-PDFT, srDFT 
  Lee Huntington         : MR-EOM, pCC                                   
  Robert Izsak           : Overlap fitted RIJCOSX, COSX-SCS-MP3, EOM     
  Riya Kayal             : Wick's Theorem for AUTO-CI, AUTO-CI UHF-CCSDT 
  Emily Kempfer          : AUTO-CI RHF CISDT and CCSDT, approximate NEVPT4
  Christian Kollmar      : KDIIS, OOCD, Brueckner-CCSD(T), CCSD density, CASPT2, CASPT2-K, improved NEVPT2 
  Axel Koslowski         : Symmetry handling                             
  Simone Kossmann        : meta-GGA functionals, TD-DFT gradient, OOMP2, (MP2 Hessian; deprecated post 5.0) 
  Lucas Lang             : DCDCAS, Hyperfine gauge corrections, ICE-SOC+SSC
  Marvin Lechner         : AUTO-CI (C++ implementation), FIC-MRCC        
  Spencer Leger          : CASSCF response                               
  Dagmar Lenk            : GEPOL surface, SMD, ORCA-2-JSON               
  Dimitrios Liakos       : Extrapolation schemes; Compound Job, Property file
  Dimitrios Manganas     : Further ROCIS development; embedding schemes. LFT, Crystal Embedding 
  Dimitrios Pantazis     : SARC Basis sets                               
  Anastasios Papadopoulos: AUTO-CI, single reference methods and gradients 
  Taras Petrenko         : pre 6.0 DFT Hessian and TD-DFT gradient,  ECA, NRVS 
  Petra Pikulova         : Analytic Raman intensities                    
  Peter Pinski           : DLPNO-MP2, DLPNO-MP2 Gradient                 
  Shashank Vittal Rao    : ES-AILFT, MagRelax                            
  Christoph Reimann      : Effective Core Potentials                     
  Marius Retegan         : Local ZFS, SOC                                
  Christoph Riplinger    : Optimizer, TS searches, QM/MM, DLPNO-CCSD(T), (RO)-DLPNO pert. Triples 
  Michael Roemelt        : Original ROCIS implementation, recursive CI coupling coefficients
  Masaaki Saitow         : Open-shell DLPNO-CCSD energy and density      
  Barbara Sandhoefer     : DKH picture change effects                    
  Yorick L. A. Schmerwitz: GMF and freeze-and-release deltaSCF, NEB S-IDPP initial path                    
  Kantharuban Sivalingam : CASSCF convergence/infrastructure, NEVPT2, NEVPT3, NEVPT4(SD), FIC-MRCI and CEPA variants
  Bernardo de Souza      : ESD, SOC TD-DFT                               
  Georgi L. Stoychev     : AutoAux, RI-MP2 NMR, DLPNO-MP2 response, X2C  
  Van Anh Tran           : RI-MP2 g-tensors                              
  Willem Van den Heuvel  : Paramagnetic NMR                              
  Zikuan Wang            : NOTCH, Electric field optimization            
  Frank Wennmohs         : Technical directorship and infrastructure     
  Hang Xu                : AUTO-CI-Response properties                   
                                                                         
[FACCTs GmbH]                                                            
  Markus Bursch, Nicolas Foglia, Miquel Garcia-Rates, Ingolf Harden, Hagen Neugebauer, Anastasios Papadopoulos, 
  Christoph Riplinger, Bernardo de Souza, Georgi L. Stoychev                                                    
                                                                 
  APM, various basis sets, CI-OPT, improved COSX, DLPNO-Multilevel,           
  DOCKER, DRACO, updates on ESD, Fragmentator, GOAT, IRC, LR-CPCM, L-BFGS, MBIS, meta-GGA TD-DFT gradient, ML-optimized integration grids, 
  MM, NACMEs, nearIR, NEB, NEB-TS, NL-DFT gradient (VV10), 2- and 3-layer-ONIOM, interface openCOSMO-RS, QMMM,   
  Crystal-QMMM, RESP, rigid body optimization, SF, symmetry and pop. for TD-DFT, various functionals, SOLVATOR                                   
                                                                         
[Other institutions]                                                     
  V. Asgeirsson          : NEB                                           
  Christoph Bannwarth    : sTDA-DFT, sTD-DFT, PBEh-3c, B97-3c, D3        
  Giovanni Bistoni       : ETS/NOCV, ADLD/ADEX, COVALED                  
  Martin Brehm           : Molecular dynamics                            
  Ronald Cardenas        : ETS/NOCV                                      
  Martina Colucci        : COVALED                                       
  Sebastian Ehlert       : rSCAN, r2SCAN, r2SCAN-3c, D4, dhf basis sets  
  Marvin Friede          : D4 for Fr, Ra, Ac-Lr                          
  Lars Goerigk           : TD-DFT with DH, B97 family of functionals     
  Stefan Grimme          : VdW corrections, initial TS optimization, DFT functionals, gCP, sTDA/sTD-DF 
  Waldemar Hujo          : DFT-NL                                        
  H. Jonsson             : NEB                                           
  Holger Kruse           : gCP                                           
  Marcel Mueller         : wB97X-3c, vDZP basis set                      
  Hagen Neugebauer       : wr2SCAN, Native XTB                           
  Gianluca Regni         : ADLD/ADEX                                     
  Tobias Risthaus        : pre 6.0 range-separated hybrid DFT and stability analysis
  Lukas Wittmann         : regularized MP2, r2SCAN double-hybrids, wr2SCAN        
                                                                         
We gratefully acknowledge several colleagues who have allowed us to      
interface, adapt or use parts of their codes:                            
  Ed Valeev, F. Pavosevic, A. Kumar             : LibInt (2-el integral package), F12 methods 
  Garnet Chan, S. Sharma, J. Yang, R. Olivares  : DMRG                   
  Ulf Ekstrom                                   : XCFun DFT Library      
  Mihaly Kallay                                 : mrcc  (arbitrary order and MRCC methods)
  Frank Weinhold                                : gennbo (NPA and NBO analysis)           
  Simon Mueller                                 : openCOSMO-RS                            
  Christopher J. Cramer and Donald G. Truhlar   : smd solvation model                     
  S Lehtola, MJT Oliveira, MAL Marques          : LibXC Library                           
  Liviu Ungur et al                             : ANISO software                          


 Your calculation uses the libint2 library for the computation of 2-el integrals
 For citations please refer to: http://libint.valeyev.net

 Your ORCA version has been built with support for libXC version: 7.0.0
 For citations please refer to: https://libxc.gitlab.io

 This ORCA versions uses:
   CBLAS   interface :  Fast vector & matrix operations
   LAPACKE interface :  Fast linear algebra routines
   SCALAPACK package :  Parallel linear algebra routines
   Shared memory     :  Shared parallel matrices
   BLAS/LAPACK       :  OpenBLAS 0.3.29  USE64BITINT DYNAMIC_ARCH NO_AFFINITY Cooperlake SINGLE_THREADED
        Core in use  :  Cooperlake
   Copyright (c) 2011-2014, The OpenBLAS Project


  ***********************************
  * Starting time: Tue Jan 27 15:56:28 2026
  * Host name:     node236.cluster
  * Process ID:    2480137
  * Working dir.:  /scratch/56627285
  ***********************************

NOTE: MaxCore=12000 MB was set to SCF,MP2,MDCI,CIPSI,MRCI,RASCI and CIS
      => If you want to overwrite this, your respective input block should be placed after the MaxCore statement
Your calculation utilizes the geometrical counterpoise correction gCP
Please cite in your paper:
H.Kruse, S. Grimme J.Chem.Phys., 136, (2012), 154101 
   

Your calculation utilizes the atom-pairwise dispersion correction
based on EEQ partial charges (D4)


================================================================================

----- Orbital basis set information -----
Your calculation utilizes the basis: def2-mTZVPP
   Stefan Grimme, Andreas Hansen, Sebastian Ehlert, and Jan-Michael Mewes 
   J. Chem. Phys. 154, 064103 (2021). DOI: 10.1063/5.0040021

----- AuxJ basis set information -----
Your calculation utilizes the basis: def2-mTZVPP/J
   Stefan Grimme, Andreas Hansen, Sebastian Ehlert, and Jan-Michael Mewes 
   J. Chem. Phys. 154, 000000 (2021). DOI: 10.1063/5.0040021

================================================================================
                                        WARNINGS
                       Please study these warnings very carefully!
================================================================================



WARNING: SCAN, rSCAN, or r2SCAN functional requested.
  ===> : libXC variant has now been activated.



WARNING: Geometry Optimization
  ===> : Switching off AutoStart
         For restart on a previous wavefunction, please use MOREAD

================================================================================
                                       INPUT FILE
================================================================================
NAME = 0_0_confsstruct_1.inp
|  1> !r2scan-3c opt freq 
|  2> %pal 
|  3> nprocs 8 
|  4> end 
|  5> %maxcore 12000
|  6>  
|  7> * XYZ 0 1 
|  8> O      2.09337700     -6.85838700     -6.46577000
|  9> C      2.76732900     -6.62621600     -5.57028500
| 10> O      3.49329300     -6.40937900     -4.70383900
| 11> Ni      3.52946500     -5.92387100     -2.93295000
| 12> N      5.28787000     -6.54941500     -2.79659000
| 13> C      5.67041700     -7.77796300     -2.88440600
| 14> C      4.80962100     -8.91813200     -2.67703900
| 15> C      5.32924300    -10.20334800     -2.87550900
| 16> C      4.53520100    -11.31813700     -2.69705900
| 17> C      3.21118600    -11.17435000     -2.31151200
| 18> C      2.68577100     -9.90686000     -2.09968100
| 19> C      3.47003600     -8.78692000     -2.28294500
| 20> C      6.21029100     -5.50709900     -2.92064200
| 21> C      7.50059700     -5.58655700     -2.39483100
| 22> C      8.34925500     -4.49945900     -2.47681100
| 23> C      7.93322600     -3.32596900     -3.08362500
| 24> C      6.65650500     -3.23900900     -3.61509000
| 25> C      5.79800700     -4.31604100     -3.53086900
| 26> C      5.79052500     -5.12776800      0.37495400
| 27> C      5.21814300     -3.99339800     -0.41878600
| 28> C      5.79841600     -2.76514600     -0.43965900
| 29> C      5.25244900     -1.71126300     -1.21113800
| 30> C      5.94626000     -0.50291800     -1.39383100
| 31> C      5.43517300      0.49125000     -2.18470500
| 32> C      4.20924400      0.30020600     -2.83161000
| 33> C      3.49784900     -0.85523000     -2.64562600
| 34> C      3.97999100     -1.88484600     -1.81196200
| 35> C      3.26196700     -3.10930300     -1.62224300
| 36> C      1.84602600     -3.16568600     -1.98041400
| 37> C      1.27028800     -4.19054200     -2.75972700
| 38> O      1.81857300     -5.32579000     -3.07812100
| 39> O      3.50672000     -5.43918900     -1.18027300
| 40> C      3.97146500     -4.21705900     -1.10885000
| 41> C     -0.03938800     -3.97747900     -3.32098800
| 42> C     -0.56813000     -5.02899600     -4.25015000
| 43> C     -0.76943500     -2.88122400     -2.98979300
| 44> C     -0.29389000     -1.93234200     -2.05687000
| 45> C     -1.09832200     -0.86268700     -1.62689800
| 46> C     -0.65353600      0.01255600     -0.67358700
| 47> C      0.60739200     -0.17985600     -0.09827500
| 48> C      1.41686200     -1.20234800     -0.51481900
| 49> C      1.01385800     -2.08826000     -1.53661300
| 50> H      6.70537400     -8.00545800     -3.15018600
| 51> H      6.36217800    -10.31820800     -3.17250200
| 52> H      4.94752500    -12.30330200     -2.85674800
| 53> H      2.59082700    -12.04701600     -2.17406800
| 54> H      1.65788000     -9.79507000     -1.78973700
| 55> H      3.04124800     -7.79238200     -2.08823600
| 56> H      7.81711400     -6.48175200     -1.88018300
| 57> H      9.34015400     -4.56594200     -2.05248200
| 58> H      8.59676300     -2.47666100     -3.13372600
| 59> H      6.32420000     -2.32393500     -4.08082900
| 60> H      4.79168100     -4.23243600     -3.94638400
| 61> H      5.36801600     -5.11681000      1.38015700
| 62> H      5.51966200     -6.07751700     -0.08114900
| 63> H      6.87184500     -5.04389200      0.45416900
| 64> H      6.71697000     -2.58767100      0.10304000
| 65> H      6.90485200     -0.38119400     -0.90844100
| 66> H      5.97846700      1.41458100     -2.32555400
| 67> H      3.82551900      1.07040600     -3.48508800
| 68> H      2.56049400     -0.99361700     -3.16305500
| 69> H     -0.55970000     -5.99979500     -3.75622800
| 70> H     -1.58301000     -4.79348700     -4.56021600
| 71> H      0.06172300     -5.10730500     -5.13732800
| 72> H     -1.75537200     -2.74214000     -3.41273600
| 73> H     -2.08554400     -0.75531800     -2.05521800
| 74> H     -1.27608500      0.83234000     -0.34543700
| 75> H      0.93954800      0.48092500      0.68967000
| 76> H      2.37225000     -1.34920600     -0.03469700
| 77> 
| 78> **                         ****END OF INPUT****
================================================================================

                       *****************************
                       * Geometry Optimization Run *
                       *****************************

Geometry optimization settings:
Update method            Update   .... BFGS
Choice of coordinates    CoordSys .... (2022) Redundant Internals
Initial Hessian          InHess   .... Almloef's Model
Max. no of cycles        MaxIter  .... 207

Convergence Tolerances:
Energy Change            TolE     ....  5.0000e-06 Eh
Max. Gradient            TolMAXG  ....  3.0000e-04 Eh/bohr
RMS Gradient             TolRMSG  ....  1.0000e-04 Eh/bohr
Max. Displacement        TolMAXD  ....  4.0000e-03 bohr
RMS Displacement         TolRMSD  ....  2.0000e-03 bohr
Strict Convergence                .... False

------------------------------------------------------------------------------
                        ORCA OPTIMIZATION COORDINATE SETUP
------------------------------------------------------------------------------

The optimization will be done in redundant internal coordinates (2022)
Making redundant internal coordinates   ...  (2022 redundants) done
Evaluating the initial hessian          ...  (Almloef) done
Evaluating the coordinates              ...  done
Calculating the B-matrix                .... done
Calculating the G-matrix                .... done
The number of degrees of freedom        ....  447

    -----------------------------------------------------------------
                    Redundant Internal Coordinates


    -----------------------------------------------------------------
         Definition                    Initial Value    Approx d2E/dq
    -----------------------------------------------------------------
      1. B(C   1,O   0)                  1.1446         1.378688   
      2. B(O   2,C   1)                  1.1510         1.346498   
      3. B(Ni  3,O   2)                  1.8366         1.097715   
      4. B(N   4,Ni  3)                  1.8713         0.966193   
      5. B(C   5,N   4)                  1.2897         0.808839   
      6. B(C   6,C   5)                  1.4436         0.513141   
      7. B(C   7,C   6)                  1.4004         0.601331   
      8. B(C   8,C   7)                  1.3803         0.647571   
      9. B(C   9,C   8)                  1.3865         0.632920   
     10. B(C  10,C   9)                  1.3883         0.628638   
     11. B(C  11,C  10)                  1.3795         0.649452   
     12. B(C  11,C   6)                  1.4025         0.596748   
     13. B(C  12,N   4)                  1.3974         0.544629   
     14. B(C  12,Ni  3)                  2.7131         0.048979   
     15. B(C  13,C  12)                  1.3956         0.612090   
     16. B(C  14,C  13)                  1.3816         0.644459   
     17. B(C  15,C  14)                  1.3851         0.636246   
     18. B(C  16,C  15)                  1.3857         0.634855   
     19. B(C  17,C  16)                  1.3799         0.648426   
     20. B(C  17,C  12)                  1.4003         0.601491   
     21. B(C  19,C  18)                  1.4981         0.419952   
     22. B(C  20,C  19)                  1.3586         0.701226   
     23. B(C  21,C  20)                  1.4156         0.568712   
     24. B(C  22,C  21)                  1.4053         0.590663   
     25. B(C  23,C  22)                  1.3693         0.674090   
     26. B(C  24,C  23)                  1.3992         0.603934   
     27. B(C  25,C  24)                  1.3696         0.673508   
     28. B(C  26,C  25)                  1.4098         0.580941   
     29. B(C  26,C  21)                  1.4178         0.564055   
     30. B(C  27,C  26)                  1.4321         0.535311   
     31. B(C  28,C  27)                  1.4616         0.480244   
     32. B(C  29,C  28)                  1.4104         0.579756   
     33. B(O  30,C  29)                  1.3003         0.778013   
     34. B(O  30,Ni  3)                  1.8182         1.174360   
     35. B(O  31,Ni  3)                  1.8186         1.172720   
     36. B(C  32,O  31)                  1.3095         0.752261   
     37. B(C  32,C  27)                  1.4121         0.576033   
     38. B(C  32,C  19)                  1.4424         0.515457   
     39. B(C  32,Ni  3)                  2.5369         0.093550   
     40. B(C  33,C  29)                  1.4407         0.518591   
     41. B(C  34,C  33)                  1.4995         0.417817   
     42. B(C  35,C  33)                  1.3581         0.702480   
     43. B(C  36,C  35)                  1.4131         0.573953   
     44. B(C  37,C  36)                  1.4058         0.589660   
     45. B(C  38,C  37)                  1.3685         0.676242   
     46. B(C  39,C  38)                  1.3993         0.603886   
     47. B(C  40,C  39)                  1.3690         0.674833   
     48. B(C  41,C  40)                  1.4111         0.578111   
     49. B(C  41,C  36)                  1.4160         0.567788   
     50. B(C  41,C  28)                  1.4319         0.535680   
     51. B(H  42,C   5)                  1.0925         0.356824   
     52. B(H  43,C   7)                  1.0809         0.372337   
     53. B(H  44,C   8)                  1.0798         0.373790   
     54. B(H  45,C   9)                  1.0795         0.374286   
     55. B(H  46,C  10)                  1.0794         0.374388   
     56. B(H  47,C  11)                  1.1004         0.346604   
     57. B(H  47,Ni  3)                  2.1079         0.086608   
     58. B(H  48,C  13)                  1.0800         0.373562   
     59. B(H  49,C  14)                  1.0800         0.373603   
     60. B(H  50,C  15)                  1.0789         0.375030   
     61. B(H  51,C  16)                  1.0792         0.374657   
     62. B(H  52,C  17)                  1.0919         0.357542   
     63. B(H  53,C  18)                  1.0904         0.359514   
     64. B(H  54,C  18)                  1.0879         0.362954   
     65. B(H  55,C  18)                  1.0875         0.363480   
     66. B(H  56,C  20)                  1.0816         0.371447   
     67. B(H  57,H  50)                  3.4936         0.010000   
     68. B(H  57,C  22)                  1.0814         0.371726   
     69. B(H  58,C  23)                  1.0805         0.372847   
     70. B(H  59,C  24)                  1.0805         0.372885   
     71. B(H  60,C  25)                  1.0796         0.374136   
     72. B(H  61,C  34)                  1.0893         0.361084   
     73. B(H  62,C  34)                  1.0870         0.364080   
     74. B(H  63,C  34)                  1.0908         0.358990   
     75. B(H  64,C  35)                  1.0818         0.371109   
     76. B(H  65,C  37)                  1.0815         0.371553   
     77. B(H  66,C  38)                  1.0804         0.373006   
     78. B(H  67,C  39)                  1.0807         0.372676   
     79. B(H  68,C  40)                  1.0793         0.374561   
     80. L(O   0,C   1,O   2,Ni  3, 1) 183.0393         0.573747   
     81. L(O   0,C   1,O   2,Ni  3, 2) 179.1951         0.573747   
     82. A(C   1,O   2,Ni  3)          142.0063         0.621987   
     83. A(N   4,Ni  3,H  47)           83.8069         0.382906   
     84. A(O   2,Ni  3,O  30)           89.5094         0.687238   
     85. A(O   2,Ni  3,C  12)           93.6950         0.382167   
     86. A(C  12,Ni  3,O  31)           88.1115         0.386586   
     87. A(N   4,Ni  3,C  32)           90.5037         0.418745   
     88. A(O   2,Ni  3,H  47)           98.4826         0.391520   
     89. A(C  32,Ni  3,H  47)          110.4016         0.263276   
     90. A(O   2,Ni  3,C  32)          150.9961         0.428409   
     91. A(O  31,Ni  3,H  47)           81.2072         0.396079   
     92. A(C  12,Ni  3,C  32)           73.8131         0.257888   
     93. A(C  12,Ni  3,H  47)          111.2978         0.239532   
     94. A(O  30,Ni  3,O  31)           88.7115         0.696255   
     95. A(O  30,Ni  3,H  47)           96.0638         0.396176   
     96. A(O  30,Ni  3,C  32)           90.0026         0.433634   
     97. A(C  12,Ni  3,O  30)          151.5970         0.386680   
     98. A(N   4,Ni  3,C  12)           28.6613         0.373820   
     99. A(O   2,Ni  3,N   4)           90.0230         0.661394   
    100. A(N   4,Ni  3,O  31)           91.7544         0.670021   
    101. A(O  31,Ni  3,C  32)           29.5310         0.433525   
    102. A(Ni  3,N   4,C   5)          126.3113         0.550395   
    103. A(Ni  3,N   4,C  12)          111.3746         0.510888   
    104. A(C   5,N   4,C  12)          120.5764         0.439042   
    105. A(C   6,C   5,H  42)          115.8086         0.341325   
    106. A(N   4,C   5,C   6)          124.4512         0.437220   
    107. A(N   4,C   5,H  42)          119.7301         0.366398   
    108. A(C   7,C   6,C  11)          118.6909         0.428734   
    109. A(C   5,C   6,C  11)          122.4124         0.416756   
    110. A(C   5,C   6,C   7)          118.8967         0.417324   
    111. A(C   6,C   7,H  43)          119.4091         0.353079   
    112. A(C   6,C   7,C   8)          120.6269         0.435078   
    113. A(C   8,C   7,H  43)          119.9639         0.357544   
    114. A(C   9,C   8,H  44)          120.0244         0.356392   
    115. A(C   7,C   8,H  44)          119.8724         0.357781   
    116. A(C   7,C   8,C   9)          120.1032         0.439111   
    117. A(C   8,C   9,H  45)          120.0237         0.356473   
    118. A(C   8,C   9,C  10)          119.9013         0.436768   
    119. A(C  10,C   9,H  45)          120.0749         0.356062   
    120. A(C   9,C  10,C  11)          120.3825         0.438803   
    121. A(C  11,C  10,H  46)          119.7001         0.358055   
    122. A(C   9,C  10,H  46)          119.9175         0.356078   
    123. A(C  10,C  11,H  47)          119.2564         0.353400   
    124. A(C   6,C  11,H  47)          120.4284         0.348383   
    125. A(C   6,C  11,C  10)          120.2915         0.434706   
    126. A(C  13,C  12,C  17)          119.0002         0.430712   
    127. A(Ni  3,C  12,C  17)           80.6633         0.311827   
    128. A(N   4,C  12,C  13)          122.3027         0.420368   
    129. A(Ni  3,C  12,C  13)          155.0311         0.312709   
    130. A(N   4,C  12,C  17)          118.6049         0.419061   
    131. A(Ni  3,C  12,N   4)           39.9641         0.305081   
    132. A(C  12,C  13,H  48)          119.8472         0.354338   
    133. A(C  12,C  13,C  14)          120.0512         0.436091   
    134. A(C  14,C  13,H  48)          120.0306         0.357451   
    135. A(C  15,C  14,H  49)          119.9926         0.356679   
    136. A(C  13,C  14,H  49)          119.4624         0.357458   
    137. A(C  13,C  14,C  15)          120.5410         0.439145   
    138. A(C  16,C  15,H  50)          119.9624         0.356778   
    139. A(C  14,C  15,H  50)          120.1687         0.356911   
    140. A(C  14,C  15,C  16)          119.8655         0.437957   
    141. A(C  15,C  16,C  17)          120.0559         0.439458   
    142. A(C  17,C  16,H  51)          119.7739         0.358002   
    143. A(C  15,C  16,H  51)          120.1617         0.356718   
    144. A(C  12,C  17,H  52)          120.1507         0.350682   
    145. A(C  16,C  17,H  52)          119.3656         0.355170   
    146. A(C  12,C  17,C  16)          120.4836         0.435202   
    147. A(H  53,C  18,H  55)          108.5030         0.291192   
    148. A(C  19,C  18,H  55)          111.1061         0.331146   
    149. A(H  53,C  18,H  54)          107.3852         0.291126   
    150. A(C  19,C  18,H  54)          110.1082         0.331067   
    151. A(H  54,C  18,H  55)          110.2101         0.291628   
    152. A(C  19,C  18,H  53)          109.4361         0.330546   
    153. A(C  20,C  19,C  32)          120.1329         0.429292   
    154. A(C  18,C  19,C  32)          117.7937         0.392009   
    155. A(C  18,C  19,C  20)          121.9717         0.413870   
    156. A(C  19,C  20,H  56)          120.2243         0.362278   
    157. A(C  21,C  20,H  56)          118.6103         0.349625   
    158. A(C  19,C  20,C  21)          121.1112         0.436949   
    159. A(C  20,C  21,C  26)          119.0734         0.420222   
    160. A(C  22,C  21,C  26)          119.5556         0.423073   
    161. A(C  20,C  21,C  22)          121.3709         0.423695   
    162. A(C  21,C  22,H  57)          118.4310         0.351913   
    163. A(C  21,C  22,C  23)          121.0033         0.436824   
    164. A(C  23,C  22,H  57)          120.5569         0.359894   
    165. A(C  22,C  23,H  58)          120.5321         0.360079   
    166. A(C  22,C  23,C  24)          119.6633         0.438577   
    167. A(C  24,C  23,H  58)          119.7970         0.353419   
    168. A(C  23,C  24,H  59)          119.5665         0.353425   
    169. A(C  23,C  24,C  25)          120.4973         0.438509   
    170. A(C  25,C  24,H  59)          119.9358         0.360032   
    171. A(C  26,C  25,H  60)          119.1260         0.351311   
    172. A(C  24,C  25,C  26)          121.2517         0.435452   
    173. A(C  24,C  25,H  60)          119.6074         0.360238   
    174. A(C  25,C  26,C  27)          122.0940         0.417904   
    175. A(C  21,C  26,C  27)          119.9018         0.415715   
    176. A(C  21,C  26,C  25)          117.9107         0.421821   
    177. A(C  28,C  27,C  32)          123.0629         0.409305   
    178. A(C  26,C  27,C  32)          117.8386         0.417273   
    179. A(C  26,C  27,C  28)          119.0933         0.404034   
    180. A(C  27,C  28,C  29)          123.9794         0.409773   
    181. A(C  29,C  28,C  41)          118.7372         0.417803   
    182. A(C  27,C  28,C  41)          117.2597         0.404083   
    183. A(C  28,C  29,O  30)          126.6977         0.443840   
    184. A(O  30,C  29,C  33)          114.6474         0.434998   
    185. A(C  28,C  29,C  33)          118.6128         0.415399   
    186. A(Ni  3,O  30,C  29)          131.6366         0.567005   
    187. A(Ni  3,O  31,C  32)          107.2695         0.563228   
    188. A(C  19,C  32,C  27)          119.1149         0.414477   
    189. A(Ni  3,C  32,C  27)          100.3018         0.344461   
    190. A(Ni  3,C  32,C  19)          126.7923         0.338116   
    191. A(C  27,C  32,O  31)          122.2757         0.440634   
    192. A(C  19,C  32,O  31)          118.5275         0.431901   
    193. A(Ni  3,C  32,O  31)           43.1995         0.358137   
    194. A(C  34,C  33,C  35)          121.8432         0.413626   
    195. A(C  29,C  33,C  35)          120.8658         0.429897   
    196. A(C  29,C  33,C  34)          117.2725         0.392075   
    197. A(H  62,C  34,H  63)          108.8233         0.291201   
    198. A(H  61,C  34,H  63)          107.4780         0.290823   
    199. A(C  33,C  34,H  63)          110.5297         0.330188   
    200. A(H  61,C  34,H  62)          109.2486         0.291467   
    201. A(C  33,C  34,H  62)          110.7340         0.330957   
    202. A(C  33,C  34,H  61)          109.9542         0.330505   
    203. A(C  33,C  35,C  36)          121.4748         0.437814   
    204. A(C  33,C  35,H  64)          119.8910         0.362333   
    205. A(C  36,C  35,H  64)          118.5863         0.350113   
    206. A(C  37,C  36,C  41)          119.9924         0.423444   
    207. A(C  35,C  36,C  41)          118.6467         0.421406   
    208. A(C  35,C  36,C  37)          121.3523         0.424262   
    209. A(C  36,C  37,C  38)          120.9137         0.436941   
    210. A(C  38,C  37,H  65)          120.6040         0.360061   
    211. A(C  36,C  37,H  65)          118.4749         0.351785   
    212. A(C  37,C  38,C  39)          119.4304         0.438823   
    213. A(C  39,C  38,H  66)          119.9144         0.353440   
    214. A(C  37,C  38,H  66)          120.6368         0.360301   
    215. A(C  38,C  39,C  40)          120.6919         0.438658   
    216. A(C  40,C  39,H  67)          119.7884         0.360118   
    217. A(C  38,C  39,H  67)          119.5170         0.353387   
    218. A(C  39,C  40,C  41)          121.3551         0.435223   
    219. A(C  41,C  40,H  68)          119.3073         0.351089   
    220. A(C  39,C  40,H  68)          119.3192         0.360428   
    221. A(C  36,C  41,C  40)          117.4292         0.421950   
    222. A(C  28,C  41,C  40)          122.0621         0.417592   
    223. A(C  28,C  41,C  36)          120.3778         0.416254   
    224. A(Ni  3,H  47,C  11)          129.7916         0.264542   
    225. D(H  47,Ni  3,O   2,C   1)     77.8964         0.010000   
    226. D(C  32,Ni  3,O   2,C   1)   -107.2817         0.010000   
    227. D(N   4,Ni  3,O   2,C   1)    161.6380         0.010000   
    228. D(C  12,Ni  3,O   2,C   1)   -169.9168         0.010000   
    229. D(O  30,Ni  3,O   2,C   1)    -18.1614         0.010000   
    230. D(C  12,N   4,Ni  3,H  47)   -163.7904         0.010000   
    231. D(C  12,N   4,Ni  3,O  31)    -82.8321         0.010000   
    232. D(C   5,N   4,Ni  3,C  32)    141.7685         0.010000   
    233. D(C  12,N   4,Ni  3,O   2)     97.6794         0.010000   
    234. D(C   5,N   4,Ni  3,C  12)   -164.9104         0.010000   
    235. D(C   5,N   4,Ni  3,O   2)    -67.2310         0.010000   
    236. D(C   5,N   4,Ni  3,O  31)    112.2575         0.010000   
    237. D(C  12,N   4,Ni  3,C  32)    -53.3211         0.010000   
    238. D(C   5,N   4,Ni  3,H  47)     31.2992         0.010000   
    239. D(C   6,C   5,N   4,Ni  3)    -20.8864         0.055927   
    240. D(H  42,C   5,N   4,Ni  3)    157.9116         0.055927   
    241. D(H  42,C   5,N   4,C  12)     -5.7341         0.055927   
    242. D(C   6,C   5,N   4,C  12)    175.4679         0.055927   
    243. D(C  11,C   6,C   5,H  42)    177.5718         0.017948   
    244. D(C   7,C   6,C   5,H  42)     -2.3996         0.017948   
    245. D(C   7,C   6,C   5,N   4)    176.4410         0.017948   
    246. D(C  11,C   6,C   5,N   4)     -3.5876         0.017948   
    247. D(H  43,C   7,C   6,C   5)      0.4042         0.024934   
    248. D(H  43,C   7,C   6,C  11)   -179.5683         0.024934   
    249. D(C   8,C   7,C   6,C  11)      0.5135         0.024934   
    250. D(C   8,C   7,C   6,C   5)   -179.5141         0.024934   
    251. D(H  44,C   8,C   7,H  43)     -0.1301         0.029183   
    252. D(C   9,C   8,C   7,H  43)    179.7702         0.029183   
    253. D(H  44,C   8,C   7,C   6)    179.7877         0.029183   
    254. D(C   9,C   8,C   7,C   6)     -0.3120         0.029183   
    255. D(C  10,C   9,C   8,C   7)     -0.2583         0.027791   
    256. D(H  45,C   9,C   8,H  44)     -0.2116         0.027791   
    257. D(H  45,C   9,C   8,C   7)    179.8883         0.027791   
    258. D(C  10,C   9,C   8,H  44)    179.6418         0.027791   
    259. D(H  46,C  10,C   9,H  45)      0.4780         0.027393   
    260. D(H  46,C  10,C   9,C   8)   -179.3754         0.027393   
    261. D(C  11,C  10,C   9,H  45)   -179.5240         0.027393   
    262. D(C  11,C  10,C   9,C   8)      0.6226         0.027393   
    263. D(H  47,C  11,C  10,H  46)      1.3469         0.029364   
    264. D(H  47,C  11,C  10,C   9)   -178.6511         0.029364   
    265. D(C   6,C  11,C  10,H  46)    179.5832         0.029364   
    266. D(C  10,C  11,C   6,C   5)    179.8787         0.024535   
    267. D(C  10,C  11,C   6,C   7)     -0.1498         0.024535   
    268. D(H  47,C  11,C   6,C   5)     -1.9057         0.024535   
    269. D(C   6,C  11,C  10,C   9)     -0.4148         0.029364   
    270. D(H  47,C  11,C   6,C   7)    178.0657         0.024535   
    271. D(C  17,C  12,N   4,C   5)    145.6859         0.025649   
    272. D(C  13,C  12,N   4,C   5)    -37.8448         0.025649   
    273. D(C  13,C  12,N   4,Ni  3)    156.2576         0.025649   
    274. D(Ni  3,C  12,N   4,C   5)    165.8976         0.025649   
    275. D(C  13,C  12,Ni  3,O  31)     43.4088         0.010000   
    276. D(C  13,C  12,Ni  3,O  30)    127.1930         0.010000   
    277. D(C  13,C  12,Ni  3,N   4)    -53.7250         0.010000   
    278. D(C  13,C  12,Ni  3,O   2)   -136.9883         0.010000   
    279. D(N   4,C  12,Ni  3,H  47)     17.3295         0.010000   
    280. D(N   4,C  12,Ni  3,C  32)    123.3769         0.010000   
    281. D(N   4,C  12,Ni  3,O  31)     97.1339         0.010000   
    282. D(C  17,C  12,N   4,Ni  3)    -20.2116         0.025649   
    283. D(N   4,C  12,Ni  3,O  30)   -179.0819         0.010000   
    284. D(N   4,C  12,Ni  3,O   2)    -83.2632         0.010000   
    285. D(C  14,C  13,C  12,C  17)      0.1864         0.028125   
    286. D(C  14,C  13,C  12,N   4)   -176.2695         0.028125   
    287. D(C  14,C  13,C  12,Ni  3)   -138.4893         0.028125   
    288. D(H  48,C  13,C  12,N   4)      0.6662         0.028125   
    289. D(H  48,C  13,C  12,Ni  3)     38.4463         0.028125   
    290. D(H  49,C  14,C  13,H  48)      2.0782         0.028884   
    291. D(H  49,C  14,C  13,C  12)    179.0082         0.028884   
    292. D(C  15,C  14,C  13,H  48)   -177.1951         0.028884   
    293. D(C  15,C  14,C  13,C  12)     -0.2652         0.028884   
    294. D(H  50,C  15,C  14,H  49)     -0.0115         0.028104   
    295. D(H  50,C  15,C  14,C  13)    179.2580         0.028104   
    296. D(C  16,C  15,C  14,H  49)   -179.3421         0.028104   
    297. D(C  16,C  15,C  14,C  13)     -0.0726         0.028104   
    298. D(H  51,C  16,C  15,H  50)      0.1000         0.027973   
    299. D(H  51,C  16,C  15,C  14)    179.4321         0.027973   
    300. D(C  17,C  16,C  15,H  50)   -178.8427         0.027973   
    301. D(C  17,C  16,C  15,C  14)      0.4893         0.027973   
    302. D(H  52,C  17,C  16,H  51)      0.5653         0.029265   
    303. D(C  12,C  17,C  16,H  51)   -179.5154         0.029265   
    304. D(C  16,C  17,C  12,N   4)    176.8178         0.027101   
    305. D(H  52,C  17,C  12,Ni  3)    -16.2600         0.027101   
    306. D(C  16,C  17,C  12,C  13)      0.2297         0.027101   
    307. D(C  12,C  17,C  16,C  15)     -0.5685         0.029265   
    308. D(C  16,C  17,C  12,Ni  3)    163.8214         0.027101   
    309. D(H  52,C  17,C  16,C  15)    179.5122         0.029265   
    310. D(H  52,C  17,C  12,N   4)     -3.2636         0.027101   
    311. D(C  32,C  19,C  18,H  54)     31.0764         0.013041   
    312. D(C  32,C  19,C  18,H  53)    -86.7377         0.013041   
    313. D(C  20,C  19,C  18,H  55)    -30.2001         0.013041   
    314. D(C  20,C  19,C  18,H  54)   -152.5886         0.013041   
    315. D(C  20,C  19,C  18,H  53)     89.5972         0.013041   
    316. D(H  56,C  20,C  19,C  32)    178.0671         0.034642   
    317. D(H  56,C  20,C  19,C  18)      1.8161         0.034642   
    318. D(C  21,C  20,C  19,C  32)     -4.6486         0.034642   
    319. D(C  21,C  20,C  19,C  18)    179.1004         0.034642   
    320. D(C  26,C  21,C  20,H  56)   -173.4300         0.022182   
    321. D(C  26,C  21,C  20,C  19)      9.2429         0.022182   
    322. D(C  22,C  21,C  20,H  56)      6.6983         0.022182   
    323. D(C  22,C  21,C  20,C  19)   -170.6288         0.022182   
    324. D(H  57,C  22,C  21,C  26)    178.5898         0.024012   
    325. D(H  57,C  22,C  21,C  20)     -1.5391         0.024012   
    326. D(C  23,C  22,C  21,C  26)     -2.4786         0.024012   
    327. D(C  23,C  22,C  21,C  20)    177.3925         0.024012   
    328. D(C  24,C  23,C  22,H  57)    178.3520         0.031809   
    329. D(C  24,C  23,C  22,C  21)     -0.5569         0.031809   
    330. D(H  58,C  23,C  22,C  21)   -179.5597         0.031809   
    331. D(H  58,C  23,C  22,H  57)     -0.6508         0.031809   
    332. D(H  59,C  24,C  23,H  58)      1.3317         0.025162   
    333. D(H  59,C  24,C  23,C  22)   -177.6784         0.025162   
    334. D(C  25,C  24,C  23,H  58)   -178.9015         0.025162   
    335. D(C  25,C  24,C  23,C  22)      2.0883         0.025162   
    336. D(H  60,C  25,C  24,H  59)      0.6497         0.031750   
    337. D(H  60,C  25,C  24,C  23)   -179.1162         0.031750   
    338. D(C  26,C  25,C  24,H  59)    179.2323         0.031750   
    339. D(C  26,C  25,C  24,C  23)     -0.5336         0.031750   
    340. D(C  27,C  26,C  25,C  24)   -178.9359         0.023190   
    341. D(C  21,C  26,C  25,H  60)    176.1306         0.023190   
    342. D(C  21,C  26,C  25,C  24)     -2.4587         0.023190   
    343. D(C  27,C  26,C  21,C  22)   -179.5249         0.021806   
    344. D(C  27,C  26,C  21,C  20)      0.6010         0.021806   
    345. D(C  25,C  26,C  21,C  22)      3.9177         0.021806   
    346. D(C  27,C  26,C  25,H  60)     -0.3466         0.023190   
    347. D(C  25,C  26,C  21,C  20)   -175.9563         0.021806   
    348. D(C  32,C  27,C  26,C  25)    161.7898         0.019570   
    349. D(C  32,C  27,C  26,C  21)    -14.6191         0.019570   
    350. D(C  28,C  27,C  26,C  25)    -17.4099         0.019570   
    351. D(C  28,C  27,C  26,C  21)    166.1812         0.019570   
    352. D(C  41,C  28,C  27,C  32)    134.2344         0.015703   
    353. D(C  41,C  28,C  27,C  26)    -46.6100         0.015703   
    354. D(C  29,C  28,C  27,C  32)    -47.5620         0.015703   
    355. D(C  29,C  28,C  27,C  26)    131.5936         0.015703   
    356. D(C  33,C  29,C  28,C  41)     13.3063         0.023092   
    357. D(C  33,C  29,C  28,C  27)   -164.8725         0.023092   
    358. D(O  30,C  29,C  28,C  41)   -169.1897         0.023092   
    359. D(O  30,C  29,C  28,C  27)     12.6315         0.023092   
    360. D(Ni  3,O  30,C  29,C  33)    165.6394         0.046349   
    361. D(Ni  3,O  30,C  29,C  28)    -11.9499         0.046349   
    362. D(C  29,O  30,N   4,C  12)    -30.7034         0.010000   
    363. D(C  29,O  30,N   4,C   5)    164.5982         0.010000   
    364. D(C  29,O  30,Ni  3,H  47)    133.1147         0.010000   
    365. D(C  29,O  30,Ni  3,C  32)     22.5929         0.010000   
    366. D(C  29,O  30,Ni  3,O  31)     52.0982         0.010000   
    367. D(C  29,O  30,Ni  3,C  12)    -31.5351         0.010000   
    368. D(C  29,O  30,Ni  3,O   2)   -128.4070         0.010000   
    369. D(C  32,O  31,Ni  3,H  47)    171.3809         0.010000   
    370. D(C  32,O  31,Ni  3,O  30)    -92.2808         0.010000   
    371. D(C  32,O  31,Ni  3,C  12)     59.4904         0.010000   
    372. D(C  32,O  31,Ni  3,N   4)     87.9240         0.010000   
    373. D(C  32,O  31,O   2,C   1)   -110.1223         0.010000   
    374. D(C  27,C  32,O  31,Ni  3)     68.6791         0.047553   
    375. D(C  19,C  32,O  31,Ni  3)   -114.6428         0.047553   
    376. D(O  31,C  32,C  27,C  26)   -164.1899         0.024737   
    377. D(C  19,C  32,C  27,C  26)     19.1508         0.024737   
    378. D(Ni  3,C  32,C  27,C  28)     55.3770         0.024737   
    379. D(Ni  3,C  32,C  27,C  26)   -123.7886         0.024737   
    380. D(O  31,C  32,C  19,C  18)    -10.2271         0.019639   
    381. D(C  27,C  32,C  19,C  20)     -9.8470         0.019639   
    382. D(C  27,C  32,C  19,C  18)    166.5582         0.019639   
    383. D(Ni  3,C  32,C  19,C  20)    122.3850         0.019639   
    384. D(Ni  3,C  32,C  19,C  18)    -61.2098         0.019639   
    385. D(C  27,C  32,Ni  3,C  12)    116.8978         0.010000   
    386. D(C  27,C  32,Ni  3,N   4)    140.5097         0.010000   
    387. D(C  27,C  32,Ni  3,O   2)     49.5537         0.010000   
    388. D(C  19,C  32,Ni  3,H  47)     85.1960         0.010000   
    389. D(C  19,C  32,Ni  3,O  31)     94.2877         0.010000   
    390. D(C  19,C  32,C  27,C  28)   -161.6837         0.024737   
    391. D(C  19,C  32,Ni  3,O  30)   -178.3317         0.010000   
    392. D(C  19,C  32,Ni  3,C  12)    -21.9949         0.010000   
    393. D(C  19,C  32,Ni  3,N   4)      1.6170         0.010000   
    394. D(C  19,C  32,Ni  3,O   2)    -89.3390         0.010000   
    395. D(C  35,C  33,C  29,O  30)    174.9726         0.018339   
    396. D(C  35,C  33,C  29,C  28)     -7.2290         0.018339   
    397. D(C  34,C  33,C  29,O  30)     -3.4891         0.018339   
    398. D(C  34,C  33,C  29,C  28)    174.3092         0.018339   
    399. D(H  63,C  34,C  33,C  29)    -62.8869         0.012913   
    400. D(H  62,C  34,C  33,C  35)     -2.0063         0.012913   
    401. D(H  62,C  34,C  33,C  29)    176.4394         0.012913   
    402. D(H  61,C  34,C  33,C  35)   -122.8332         0.012913   
    403. D(H  61,C  34,C  33,C  29)     55.6125         0.012913   
    404. D(H  64,C  35,C  33,C  34)     -0.9752         0.034777   
    405. D(H  64,C  35,C  33,C  29)   -179.3657         0.034777   
    406. D(C  36,C  35,C  33,C  34)    176.4715         0.034777   
    407. D(C  36,C  35,C  33,C  29)     -1.9190         0.034777   
    408. D(C  41,C  36,C  35,H  64)   -177.8930         0.022611   
    409. D(C  41,C  36,C  35,C  33)      4.6280         0.022611   
    410. D(C  37,C  36,C  35,H  64)      3.1722         0.022611   
    411. D(C  37,C  36,C  35,C  33)   -174.3068         0.022611   
    412. D(H  65,C  37,C  36,C  41)    178.7705         0.023926   
    413. D(H  65,C  37,C  36,C  35)     -2.3089         0.023926   
    414. D(C  38,C  37,C  36,C  41)     -2.2134         0.023926   
    415. D(C  38,C  37,C  36,C  35)    176.7072         0.023926   
    416. D(H  66,C  38,C  37,H  65)     -0.9207         0.032028   
    417. D(H  66,C  38,C  37,C  36)   -179.9159         0.032028   
    418. D(C  39,C  38,C  37,H  65)    177.5175         0.032028   
    419. D(C  39,C  38,C  37,C  36)     -1.4777         0.032028   
    420. D(H  67,C  39,C  38,H  66)      1.5066         0.025158   
    421. D(H  67,C  39,C  38,C  37)   -176.9431         0.025158   
    422. D(C  40,C  39,C  38,H  66)   -179.0987         0.025158   
    423. D(C  40,C  39,C  38,C  37)      2.4517         0.025158   
    424. D(H  68,C  40,C  39,H  67)      1.2851         0.031884   
    425. D(H  68,C  40,C  39,C  38)   -178.1080         0.031884   
    426. D(C  41,C  40,C  39,H  67)    179.7105         0.031884   
    427. D(C  41,C  40,C  39,C  38)      0.3174         0.031884   
    428. D(C  36,C  41,C  40,C  39)     -3.9023         0.022955   
    429. D(C  28,C  41,C  40,H  68)     -1.3300         0.022955   
    430. D(C  28,C  41,C  40,C  39)   -179.7555         0.022955   
    431. D(C  40,C  41,C  36,C  37)      4.8074         0.022107   
    432. D(C  40,C  41,C  36,C  35)   -174.1422         0.022107   
    433. D(C  28,C  41,C  36,C  37)   -179.2660         0.022107   
    434. D(C  28,C  41,C  36,C  35)      1.7843         0.022107   
    435. D(C  40,C  41,C  28,C  29)    164.9662         0.019598   
    436. D(C  40,C  41,C  28,C  27)    -16.7327         0.019598   
    437. D(C  36,C  41,C  28,C  29)    -10.7673         0.019598   
    438. D(C  36,C  41,C  40,H  68)    174.5232         0.022955   
    439. D(C  36,C  41,C  28,C  27)    167.5339         0.019598   
    440. D(Ni  3,H  47,C  11,C   6)     29.7830         0.099929   
    441. D(C  11,H  47,Ni  3,C  32)   -128.0925         0.010000   
    442. D(C  11,H  47,Ni  3,O  31)   -132.6128         0.010000   
    443. D(C  11,H  47,Ni  3,O  30)    139.6403         0.010000   
    444. D(C  11,H  47,Ni  3,C  12)    -48.1269         0.010000   
    445. D(C  11,H  47,Ni  3,N   4)    -39.8646         0.010000   
    446. D(Ni  3,H  47,C  11,C  10)   -151.9831         0.099929   
    447. D(C  11,H  47,Ni  3,O   2)     49.2314         0.010000   
    -----------------------------------------------------------------

Number of atoms                         .... 69
Number of degrees of freedom            .... 447


         *************************************************************
         *                GEOMETRY OPTIMIZATION CYCLE   1            *
         *************************************************************
---------------------------------
CARTESIAN COORDINATES (ANGSTROEM)
---------------------------------
  O      2.093377   -6.858387   -6.465770
  C      2.767329   -6.626216   -5.570285
  O      3.493293   -6.409379   -4.703839
  Ni     3.529465   -5.923871   -2.932950
  N      5.287870   -6.549415   -2.796590
  C      5.670417   -7.777963   -2.884406
  C      4.809621   -8.918132   -2.677039
  C      5.329243  -10.203348   -2.875509
  C      4.535201  -11.318137   -2.697059
  C      3.211186  -11.174350   -2.311512
  C      2.685771   -9.906860   -2.099681
  C      3.470036   -8.786920   -2.282945
  C      6.210291   -5.507099   -2.920642
  C      7.500597   -5.586557   -2.394831
  C      8.349255   -4.499459   -2.476811
  C      7.933226   -3.325969   -3.083625
  C      6.656505   -3.239009   -3.615090
  C      5.798007   -4.316041   -3.530869
  C      5.790525   -5.127768    0.374954
  C      5.218143   -3.993398   -0.418786
  C      5.798416   -2.765146   -0.439659
  C      5.252449   -1.711263   -1.211138
  C      5.946260   -0.502918   -1.393831
  C      5.435173    0.491250   -2.184705
  C      4.209244    0.300206   -2.831610
  C      3.497849   -0.855230   -2.645626
  C      3.979991   -1.884846   -1.811962
  C      3.261967   -3.109303   -1.622243
  C      1.846026   -3.165686   -1.980414
  C      1.270288   -4.190542   -2.759727
  O      1.818573   -5.325790   -3.078121
  O      3.506720   -5.439189   -1.180273
  C      3.971465   -4.217059   -1.108850
  C     -0.039388   -3.977479   -3.320988
  C     -0.568130   -5.028996   -4.250150
  C     -0.769435   -2.881224   -2.989793
  C     -0.293890   -1.932342   -2.056870
  C     -1.098322   -0.862687   -1.626898
  C     -0.653536    0.012556   -0.673587
  C      0.607392   -0.179856   -0.098275
  C      1.416862   -1.202348   -0.514819
  C      1.013858   -2.088260   -1.536613
  H      6.705374   -8.005458   -3.150186
  H      6.362178  -10.318208   -3.172502
  H      4.947525  -12.303302   -2.856748
  H      2.590827  -12.047016   -2.174068
  H      1.657880   -9.795070   -1.789737
  H      3.041248   -7.792382   -2.088236
  H      7.817114   -6.481752   -1.880183
  H      9.340154   -4.565942   -2.052482
  H      8.596763   -2.476661   -3.133726
  H      6.324200   -2.323935   -4.080829
  H      4.791681   -4.232436   -3.946384
  H      5.368016   -5.116810    1.380157
  H      5.519662   -6.077517   -0.081149
  H      6.871845   -5.043892    0.454169
  H      6.716970   -2.587671    0.103040
  H      6.904852   -0.381194   -0.908441
  H      5.978467    1.414581   -2.325554
  H      3.825519    1.070406   -3.485088
  H      2.560494   -0.993617   -3.163055
  H     -0.559700   -5.999795   -3.756228
  H     -1.583010   -4.793487   -4.560216
  H      0.061723   -5.107305   -5.137328
  H     -1.755372   -2.742140   -3.412736
  H     -2.085544   -0.755318   -2.055218
  H     -1.276085    0.832340   -0.345437
  H      0.939548    0.480925    0.689670
  H      2.372250   -1.349206   -0.034697

----------------------------
CARTESIAN COORDINATES (A.U.)
----------------------------
  NO LB      ZA    FRAG     MASS         X           Y           Z
   0 O     8.0000    0    15.999    3.955909  -12.960473  -12.218535
   1 C     6.0000    0    12.011    5.229494  -12.521734  -10.526313
   2 O     8.0000    0    15.999    6.601367  -12.111971   -8.888967
   3 Ni   28.0000    0    58.700    6.669722  -11.194494   -5.542472
   4 N     7.0000    0    14.007    9.992626  -12.376601   -5.284789
   5 C     6.0000    0    12.011   10.715535  -14.698220   -5.450737
   6 C     6.0000    0    12.011    9.088866  -16.852827   -5.058871
   7 C     6.0000    0    12.011   10.070810  -19.281533   -5.433925
   8 C     6.0000    0    12.011    8.570288  -21.388179   -5.096703
   9 C     6.0000    0    12.011    6.068262  -21.116461   -4.368125
  10 C     6.0000    0    12.011    5.075372  -18.721252   -3.967822
  11 C     6.0000    0    12.011    6.557418  -16.604872   -4.314141
  12 C     6.0000    0    12.011   11.735749  -10.406909   -5.519214
  13 C     6.0000    0    12.011   14.174074  -10.557063   -4.525575
  14 C     6.0000    0    12.011   15.777805   -8.502745   -4.680494
  15 C     6.0000    0    12.011   14.991624   -6.285171   -5.827207
  16 C     6.0000    0    12.011   12.578971   -6.120840   -6.831530
  17 C     6.0000    0    12.011   10.956645   -8.156135   -6.672375
  18 C     6.0000    0    12.011   10.942506   -9.690077    0.708560
  19 C     6.0000    0    12.011    9.860861   -7.546429   -0.791391
  20 C     6.0000    0    12.011   10.957418   -5.225369   -0.830835
  21 C     6.0000    0    12.011    9.925690   -3.233818   -2.288719
  22 C     6.0000    0    12.011   11.236803   -0.950377   -2.633959
  23 C     6.0000    0    12.011   10.270988    0.928328   -4.128494
  24 C     6.0000    0    12.011    7.954318    0.567307   -5.350967
  25 C     6.0000    0    12.011    6.609977   -1.616150   -4.999509
  26 C     6.0000    0    12.011    7.521093   -3.561843   -3.424112
  27 C     6.0000    0    12.011    6.164224   -5.875731   -3.065595
  28 C     6.0000    0    12.011    3.488484   -5.982280   -3.742440
  29 C     6.0000    0    12.011    2.400496   -7.918977   -5.215128
  30 O     8.0000    0    15.999    3.436605  -10.064285   -5.816806
  31 O     8.0000    0    15.999    6.626740  -10.278578   -2.230393
  32 C     6.0000    0    12.011    7.504981   -7.969087   -2.095423
  33 C     6.0000    0    12.011   -0.074433   -7.516346   -6.275758
  34 C     6.0000    0    12.011   -1.073610   -9.503425   -8.031620
  35 C     6.0000    0    12.011   -1.454021   -5.444724   -5.649890
  36 C     6.0000    0    12.011   -0.555372   -3.651597   -3.886921
  37 C     6.0000    0    12.011   -2.075528   -1.630242   -3.074392
  38 C     6.0000    0    12.011   -1.235004    0.023727   -1.272895
  39 C     6.0000    0    12.011    1.147805   -0.339879   -0.185713
  40 C     6.0000    0    12.011    2.677481   -2.272108   -0.972867
  41 C     6.0000    0    12.011    1.915914   -3.946239   -2.903778
  42 H     1.0000    0     1.008   12.671320  -15.128123   -5.952989
  43 H     1.0000    0     1.008   12.022774  -19.498587   -5.995160
  44 H     1.0000    0     1.008    9.349467  -23.249871   -5.398471
  45 H     1.0000    0     1.008    4.895953  -22.765561   -4.108393
  46 H     1.0000    0     1.008    3.132939  -18.510000   -3.382113
  47 H     1.0000    0     1.008    5.747126  -14.725468   -3.946194
  48 H     1.0000    0     1.008   14.772205  -12.248736   -3.553031
  49 H     1.0000    0     1.008   17.650333   -8.628380   -3.878629
  50 H     1.0000    0     1.008   16.245528   -4.680211   -5.921884
  51 H     1.0000    0     1.008   11.951006   -4.391601   -7.711649
  52 H     1.0000    0     1.008    9.054965   -7.998145   -7.457585
  53 H     1.0000    0     1.008   10.144080   -9.669370    2.608119
  54 H     1.0000    0     1.008   10.430650  -11.484843   -0.153349
  55 H     1.0000    0     1.008   12.985905   -9.531575    0.858255
  56 H     1.0000    0     1.008   12.693234   -4.889990    0.194717
  57 H     1.0000    0     1.008   13.048279   -0.720352   -1.716705
  58 H     1.0000    0     1.008   11.297665    2.673171   -4.394660
  59 H     1.0000    0     1.008    7.229183    2.022774   -6.585862
  60 H     1.0000    0     1.008    4.838632   -1.877664   -5.977308
  61 H     1.0000    0     1.008   -1.057680  -11.337969   -7.098242
  62 H     1.0000    0     1.008   -2.991455   -9.058378   -8.617559
  63 H     1.0000    0     1.008    0.116640   -9.651408   -9.708143
  64 H     1.0000    0     1.008   -3.317172   -5.181894   -6.449136
  65 H     1.0000    0     1.008   -3.941107   -1.427344   -3.883799
  66 H     1.0000    0     1.008   -2.411451    1.572895   -0.652781
  67 H     1.0000    0     1.008    1.775488    0.908817    1.303287
  68 H     1.0000    0     1.008    4.482903   -2.549630   -0.065568

--------------------------------
INTERNAL COORDINATES (ANGSTROEM)
--------------------------------
 O      0   0   0     0.000000000000     0.00000000     0.00000000
 C      1   0   0     1.144555833837     0.00000000     0.00000000
 O      2   1   0     1.150986830846   176.94586071     0.00000000
 Ni     3   2   1     1.836593118241   142.00632973   185.29146355
 N      4   3   2     1.871333078199    90.02295303   161.63795927
 C      5   4   3     1.289722468351   126.31133572   292.76899018
 C      6   5   4     1.443591415486   124.45124138   339.11359925
 C      7   6   5     1.400420483441   118.89670446   176.44098714
 C      8   7   6     1.380254184846   120.62691321   180.48591927
 C      9   8   7     1.386483649670   120.10315572   359.68796630
 C     10   9   8     1.388331442735   119.90131361   359.74174786
 C     11  10   9     1.379464710502   120.38246628     0.62259388
 C      5   4   3     1.397380422004   111.37457968    97.67940484
 C     13   5   4     1.395593191127   122.30266667   156.25764023
 C     14  13   5     1.381565482693   120.05121544   183.73053878
 C     15  14  13     1.385056727913   120.54103574   359.73484945
 C     16  15  14     1.385652770237   119.86551837   359.92737777
 C     17  16  15     1.379894895225   120.05591809     0.48934866
 C     14  13   5     3.287330609770    80.12769982   285.49484557
 C     19  14  13     1.498145399627    81.83755118   309.49959627
 C     20  19  14     1.358585813323   121.97166147   272.30538815
 C     21  20  19     1.415602059273   121.11118505   179.10036831
 C     22  21  20     1.405292878725   121.37089107   189.37117870
 C     23  22  21     1.369328893170   121.00331153   177.39246485
 C     24  23  22     1.399244725558   119.66334594   359.44306750
 C     25  24  23     1.369563888388   120.49726546     2.08833489
 C     26  25  24     1.409810512273   121.25171746   359.46643859
 C     27  26  25     1.432077759197   122.09401468   181.06410344
 C     28  27  26     1.461627320288   119.09331614   342.59006063
 C     29  28  27     1.410366199733   123.97941473   131.59362374
 O     30  29  28     1.300299658527   126.69773316    12.63154779
 O      4   3   2     1.818601287385   178.15052897   357.68912645
 C     32   4  31     1.309462063923   107.26950734   267.71919040
 C     30  29  28     1.440715439310   118.61278148   195.12746983
 C     34  30  29     1.499532635889   117.27246587   174.30920634
 C     34  30  29     1.358099324519   120.86577584   352.77096873
 C     36  34  30     1.413104886722   121.47478053   358.08100186
 C     37  36  34     1.405755520150   121.35230907   185.69319042
 C     38  37  36     1.368461456368   120.91368612   176.70723422
 C     39  38  37     1.399266127751   119.43036954   358.52229374
 C     40  39  38     1.369029026318   120.69186051     2.45166430
 C     41  40  39     1.411139707540   121.35506660     0.31740538
 H      6   5   4     1.092487517217   119.73014668   157.91158803
 H      8   7   6     1.080903499797   119.40909479     0.40416727
 H      9   8   7     1.079843384441   119.87236929   179.78771420
 H     10   9   8     1.079482324808   120.02367055   179.88826488
 H     11  10   9     1.079408261557   119.91745903   180.62460233
 H     12  11  10     1.100398371986   119.25642295   181.34886071
 H     14  13   5     1.080009103303   119.84715080     0.66617990
 H     15  14  13     1.079979591349   119.46239859   179.00816884
 H     16  15  14     1.078941861007   120.16872848   179.25800490
 H     17  16  15     1.079212608628   120.16172940   179.43207131
 H     18  17  16     1.091940717038   119.36564220   179.51217212
 H     19  14  13     1.090443489620   168.42480284   142.32938371
 H     19  14  13     1.087851035013    69.78264488    64.51988169
 H     19  14  13     1.087457190882    63.56869279   190.97435962
 H     21  20  19     1.081554913604   120.22428951     1.81607561
 H     23  22  21     1.081350455098   118.43102235   358.46087738
 H     24  23  22     1.080530863418   120.53212129   180.44030920
 H     25  24  23     1.080502851504   119.56648717   182.32157688
 H     26  25  24     1.079591648650   119.60739713   180.88383169
 H     35  34  30     1.089256951038   109.95421067    55.61245434
 H     35  34  30     1.087008200446   110.73397306   176.43941618
 H     35  34  30     1.090839999621   110.52968762   297.11305633
 H     36  34  30     1.081802619831   119.89097512   180.63431975
 H     38  37  36     1.081477416244   118.47487708   357.69110104
 H     39  38  37     1.080414497569   120.63681491   180.08409502
 H     40  39  38     1.080655570162   119.51702254   183.05692311
 H     41  40  39     1.079282464229   119.31915605   181.89203838

---------------------------
INTERNAL COORDINATES (A.U.)
---------------------------
 O      0   0   0     0.000000000000     0.00000000     0.00000000
 C      1   0   0     2.162897070934     0.00000000     0.00000000
 O      2   1   0     2.175049894049   176.94586071     0.00000000
 Ni     3   2   1     3.470658012919   142.00632973   185.29146355
 N      4   3   2     3.536307023144    90.02295303   161.63795927
 C      5   4   3     2.437222253948   126.31133572   292.76899018
 C      6   5   4     2.727992424549   124.45124138   339.11359925
 C      7   6   5     2.646411186036   118.89670446   176.44098714
 C      8   7   6     2.608302404558   120.62691321   180.48591927
 C      9   8   7     2.620074387036   120.10315572   359.68796630
 C     10   9   8     2.623566209880   119.90131361   359.74174786
 C     11  10   9     2.606810514258   120.38246628     0.62259388
 C      5   4   3     2.640666302491   111.37457968    97.67940484
 C     13   5   4     2.637288925596   122.30266667   156.25764023
 C     14  13   5     2.610780398368   120.05121544   183.73053878
 C     15  14  13     2.617377895701   120.54103574   359.73484945
 C     16  15  14     2.618504252458   119.86551837   359.92737777
 C     17  16  15     2.607623445572   120.05591809     0.48934866
 C     14  13   5     6.212154564121    80.12769982   285.49484557
 C     19  14  13     2.831084514089    81.83755118   309.49959627
 C     20  19  14     2.567355116611   121.97166147   272.30538815
 C     21  20  19     2.675100206642   121.11118505   179.10036831
 C     22  21  20     2.655618678740   121.37089107   189.37117870
 C     23  22  21     2.587656595356   121.00331153   177.39246485
 C     24  23  22     2.644189325639   119.66334594   359.44306750
 C     25  24  23     2.588100671962   120.49726546     2.08833489
 C     26  25  24     2.664155768920   121.25171746   359.46643859
 C     27  26  25     2.706234767361   122.09401468   181.06410344
 C     28  27  26     2.762075345201   119.09331614   342.59006063
 C     29  28  27     2.665205866034   123.97941473   131.59362374
 O     30  29  28     2.457210246647   126.69773316    12.63154779
 O      4   3   2     3.436658379954   178.15052897   357.68912645
 C     32   4  31     2.474524683574   107.26950734   267.71919040
 C     30  29  28     2.722557617208   118.61278148   195.12746983
 C     34  30  29     2.833706010708   117.27246587   174.30920634
 C     34  30  29     2.566435786004   120.86577584   352.77096873
 C     36  34  30     2.670381234411   121.47478053   358.08100186
 C     37  36  34     2.656492944332   121.35230907   185.69319042
 C     38  37  36     2.586017377363   120.91368612   176.70723422
 C     39  38  37     2.644229769922   119.43036954   358.52229374
 C     40  39  38     2.587089929129   120.69186051     2.45166430
 C     41  40  39     2.666667583952   121.35506660     0.31740538
 H      6   5   4     2.064502212267   119.73014668   157.91158803
 H      8   7   6     2.042611591814   119.40909479     0.40416727
 H      9   8   7     2.040608264121   119.87236929   179.78771420
 H     10   9   8     2.039925960296   120.02367055   179.88826488
 H     11  10   9     2.039786001034   119.91745903   180.62460233
 H     12  11  10     2.079451561266   119.25642295   181.34886071
 H     14  13   5     2.040921427385   119.84715080     0.66617990
 H     15  14  13     2.040865657874   119.46239859   179.00816884
 H     16  15  14     2.038904631727   120.16872848   179.25800490
 H     17  16  15     2.039416270582   120.16172940   179.43207131
 H     18  17  16     2.063468909680   119.36564220   179.51217212
 H     19  14  13     2.060639559899   168.42480284   142.32938371
 H     19  14  13     2.055740530677    69.78264488    64.51988169
 H     19  14  13     2.054996273130    63.56869279   190.97435962
 H     21  20  19     2.043842585509   120.22428951     1.81607561
 H     23  22  21     2.043456214926   118.43102235   358.46087738
 H     24  23  22     2.041907411109   120.53212129   180.44030920
 H     25  24  23     2.041854476264   119.56648717   182.32157688
 H     26  25  24     2.040132552417   119.60739713   180.88383169
 H     35  34  30     2.058397326932   109.95421067    55.61245434
 H     35  34  30     2.054147804170   110.73397306   176.43941618
 H     35  34  30     2.061388855211   110.52968762   297.11305633
 H     36  34  30     2.044310682440   119.89097512   180.63431975
 H     38  37  36     2.043696136721   118.47487708   357.69110104
 H     39  38  37     2.041687511523   120.63681491   180.08409502
 H     40  39  38     2.042143072703   119.51702254   183.05692311
 H     41  40  39     2.039548278536   119.31915605   181.89203838

---------------------
BASIS SET INFORMATION
---------------------
There are 5 groups of distinct atoms

 Group   1 Type O   : 11s6p2d contracted to 5s3p2d pattern {62111/411/11}
 Group   2 Type C   : 11s6p1d contracted to 5s3p1d pattern {62111/411/1}
 Group   3 Type Ni  : 17s11p6d contracted to 6s4p3d pattern {842111/6311/411}
 Group   4 Type N   : 11s6p2d contracted to 5s3p2d pattern {62111/411/11}
 Group   5 Type H   : 4s1p contracted to 2s1p pattern {31/1}

Atom   0O    basis set group =>   1
Atom   1C    basis set group =>   2
Atom   2O    basis set group =>   1
Atom   3Ni   basis set group =>   3
Atom   4N    basis set group =>   4
Atom   5C    basis set group =>   2
Atom   6C    basis set group =>   2
Atom   7C    basis set group =>   2
Atom   8C    basis set group =>   2
Atom   9C    basis set group =>   2
Atom  10C    basis set group =>   2
Atom  11C    basis set group =>   2
Atom  12C    basis set group =>   2
Atom  13C    basis set group =>   2
Atom  14C    basis set group =>   2
Atom  15C    basis set group =>   2
Atom  16C    basis set group =>   2
Atom  17C    basis set group =>   2
Atom  18C    basis set group =>   2
Atom  19C    basis set group =>   2
Atom  20C    basis set group =>   2
Atom  21C    basis set group =>   2
Atom  22C    basis set group =>   2
Atom  23C    basis set group =>   2
Atom  24C    basis set group =>   2
Atom  25C    basis set group =>   2
Atom  26C    basis set group =>   2
Atom  27C    basis set group =>   2
Atom  28C    basis set group =>   2
Atom  29C    basis set group =>   2
Atom  30O    basis set group =>   1
Atom  31O    basis set group =>   1
Atom  32C    basis set group =>   2
Atom  33C    basis set group =>   2
Atom  34C    basis set group =>   2
Atom  35C    basis set group =>   2
Atom  36C    basis set group =>   2
Atom  37C    basis set group =>   2
Atom  38C    basis set group =>   2
Atom  39C    basis set group =>   2
Atom  40C    basis set group =>   2
Atom  41C    basis set group =>   2
Atom  42H    basis set group =>   5
Atom  43H    basis set group =>   5
Atom  44H    basis set group =>   5
Atom  45H    basis set group =>   5
Atom  46H    basis set group =>   5
Atom  47H    basis set group =>   5
Atom  48H    basis set group =>   5
Atom  49H    basis set group =>   5
Atom  50H    basis set group =>   5
Atom  51H    basis set group =>   5
Atom  52H    basis set group =>   5
Atom  53H    basis set group =>   5
Atom  54H    basis set group =>   5
Atom  55H    basis set group =>   5
Atom  56H    basis set group =>   5
Atom  57H    basis set group =>   5
Atom  58H    basis set group =>   5
Atom  59H    basis set group =>   5
Atom  60H    basis set group =>   5
Atom  61H    basis set group =>   5
Atom  62H    basis set group =>   5
Atom  63H    basis set group =>   5
Atom  64H    basis set group =>   5
Atom  65H    basis set group =>   5
Atom  66H    basis set group =>   5
Atom  67H    basis set group =>   5
Atom  68H    basis set group =>   5
---------------------------------
AUXILIARY/J BASIS SET INFORMATION
---------------------------------
There are 5 groups of distinct atoms

 Group   1 Type O   : 8s3p3d contracted to 6s3p3d pattern {311111/111/111}
 Group   2 Type C   : 8s3p3d contracted to 6s3p3d pattern {311111/111/111}
 Group   3 Type Ni  : 19s5p5d3f3g contracted to 8s5p5d2f3g pattern {121111111/11111/11111/21/111}
 Group   4 Type N   : 8s3p3d contracted to 6s3p3d pattern {311111/111/111}
 Group   5 Type H   : 5s2p1d contracted to 3s1p1d pattern {311/2/1}

Atom   0O    basis set group =>   1
Atom   1C    basis set group =>   2
Atom   2O    basis set group =>   1
Atom   3Ni   basis set group =>   3
Atom   4N    basis set group =>   4
Atom   5C    basis set group =>   2
Atom   6C    basis set group =>   2
Atom   7C    basis set group =>   2
Atom   8C    basis set group =>   2
Atom   9C    basis set group =>   2
Atom  10C    basis set group =>   2
Atom  11C    basis set group =>   2
Atom  12C    basis set group =>   2
Atom  13C    basis set group =>   2
Atom  14C    basis set group =>   2
Atom  15C    basis set group =>   2
Atom  16C    basis set group =>   2
Atom  17C    basis set group =>   2
Atom  18C    basis set group =>   2
Atom  19C    basis set group =>   2
Atom  20C    basis set group =>   2
Atom  21C    basis set group =>   2
Atom  22C    basis set group =>   2
Atom  23C    basis set group =>   2
Atom  24C    basis set group =>   2
Atom  25C    basis set group =>   2
Atom  26C    basis set group =>   2
Atom  27C    basis set group =>   2
Atom  28C    basis set group =>   2
Atom  29C    basis set group =>   2
Atom  30O    basis set group =>   1
Atom  31O    basis set group =>   1
Atom  32C    basis set group =>   2
Atom  33C    basis set group =>   2
Atom  34C    basis set group =>   2
Atom  35C    basis set group =>   2
Atom  36C    basis set group =>   2
Atom  37C    basis set group =>   2
Atom  38C    basis set group =>   2
Atom  39C    basis set group =>   2
Atom  40C    basis set group =>   2
Atom  41C    basis set group =>   2
Atom  42H    basis set group =>   5
Atom  43H    basis set group =>   5
Atom  44H    basis set group =>   5
Atom  45H    basis set group =>   5
Atom  46H    basis set group =>   5
Atom  47H    basis set group =>   5
Atom  48H    basis set group =>   5
Atom  49H    basis set group =>   5
Atom  50H    basis set group =>   5
Atom  51H    basis set group =>   5
Atom  52H    basis set group =>   5
Atom  53H    basis set group =>   5
Atom  54H    basis set group =>   5
Atom  55H    basis set group =>   5
Atom  56H    basis set group =>   5
Atom  57H    basis set group =>   5
Atom  58H    basis set group =>   5
Atom  59H    basis set group =>   5
Atom  60H    basis set group =>   5
Atom  61H    basis set group =>   5
Atom  62H    basis set group =>   5
Atom  63H    basis set group =>   5
Atom  64H    basis set group =>   5
Atom  65H    basis set group =>   5
Atom  66H    basis set group =>   5
Atom  67H    basis set group =>   5
Atom  68H    basis set group =>   5
[1769525788.563926] [node236:2480150:0]     ucp_context.c:1234 UCX  WARN  transport 'ib' is not available, please use one or more of: mm, posix, self, shm, sm, sysv, tcp
[1769525788.594730] [node236:2480152:0]     ucp_context.c:1234 UCX  WARN  transport 'ib' is not available, please use one or more of: mm, posix, self, shm, sm, sysv, tcp
[1769525788.600719] [node236:2480153:0]     ucp_context.c:1234 UCX  WARN  transport 'ib' is not available, please use one or more of: mm, posix, self, shm, sm, sysv, tcp
[1769525788.619225] [node236:2480156:0]     ucp_context.c:1234 UCX  WARN  transport 'ib' is not available, please use one or more of: mm, posix, self, shm, sm, sysv, tcp
[1769525788.622346] [node236:2480159:0]     ucp_context.c:1234 UCX  WARN  transport 'ib' is not available, please use one or more of: mm, posix, self, shm, sm, sysv, tcp
[1769525788.632221] [node236:2480166:0]     ucp_context.c:1234 UCX  WARN  transport 'ib' is not available, please use one or more of: mm, posix, self, shm, sm, sysv, tcp
[1769525788.638016] [node236:2480163:0]     ucp_context.c:1234 UCX  WARN  transport 'ib' is not available, please use one or more of: mm, posix, self, shm, sm, sysv, tcp
[1769525788.638072] [node236:2480169:0]     ucp_context.c:1234 UCX  WARN  transport 'ib' is not available, please use one or more of: mm, posix, self, shm, sm, sysv, tcp


           ************************************************************
           *        Program running with 8 parallel MPI-processes     *
           *              working on a common directory               *
           ************************************************************
------------------------------------------------------------------------------
                             ORCA STARTUP CALCULATIONS
                           -- RI-GTO INTEGRALS CHOSEN --
------------------------------------------------------------------------------
------------------------------------------------------------------------------
                   ___                                                        
                  /   \      - P O W E R E D   B Y -                         
                 /     \                                                     
                 |  |  |   _    _      __       _____    __    __             
                 |  |  |  | |  | |    /  \     |  _  \  |  |  /  |          
                  \  \/   | |  | |   /    \    | | | |  |  | /  /          
                 / \  \   | |__| |  /  /\  \   | |_| |  |  |/  /          
                |  |  |   |  __  | /  /__\  \  |    /   |      \           
                |  |  |   | |  | | |   __   |  |    \   |  |\   \          
                \     /   | |  | | |  |  |  |  | |\  \  |  | \   \       
                 \___/    |_|  |_| |__|  |__|  |_| \__\ |__|  \__/        
                                                                              
                      - O R C A' S   B I G   F R I E N D -                    
                                      &                                       
                       - I N T E G R A L  F E E D E R -                       
                                                                              
 v1 FN, 2020, v2 2021, v3 2022-2024                                           
------------------------------------------------------------------------------


----------------------
SHARK INTEGRAL PACKAGE
----------------------

Number of atoms                             ...     69
Number of basis functions                   ...    972
Number of shells                            ...    468
Maximum angular momentum                    ...      2
Integral batch strategy                     ... SHARK/LIBINT Hybrid
RI-J (if used) integral strategy            ... SPLIT-RIJ (Revised 2003 algorithm where possible)
Printlevel                                  ...      1
Contraction scheme used                     ... SEGMENTED contraction
Prescreening option                         ... SCHWARTZ
   Thresh                                   ... 2.500e-11
   Tcut                                     ... 2.500e-12
   Tpresel                                  ... 2.500e-12 
Coulomb Range Separation                    ... NOT USED
Exchange Range Separation                   ... NOT USED
Multipole approximations                    ... NOT USED
Finite Nucleus Model                        ... NOT USED
CABS basis                                  ... NOT available
Auxiliary Coulomb fitting basis             ... AVAILABLE
   # of basis functions in Aux-J            ...   1616
   # of shells in Aux-J                     ...    650
   Maximum angular momentum in Aux-J        ...      4
Auxiliary J/K fitting basis                 ... NOT available
Auxiliary Correlation fitting basis         ... NOT available
Auxiliary 'external' fitting basis          ... NOT available

Checking pre-screening integrals            ... done (  0.0 sec) Dimension = 468
   => SHARK Basis and OBASIS are compatible. Storing Pre-screening
Shell pair information
Shell pair cut-off parameter TPreSel        ...   2.5e-12
Total number of shell pairs                 ...    109746
Shell pairs after pre-screening             ...     66109
Total number of primitive shell pairs       ...    417370
Primitive shell pairs kept                  ...    146057
          la=0 lb=0:  19756 shell pairs
          la=1 lb=0:  25748 shell pairs
          la=1 lb=1:   8290 shell pairs
          la=2 lb=0:   6995 shell pairs
          la=2 lb=1:   4667 shell pairs
          la=2 lb=2:    653 shell pairs

Checking whether 4 symmetric matrices of dimension 972 fit in memory
:Max Core in MB      =  12000.00
[...]
      px      :     1.051456
      py      :     1.035673
      dz2     :     0.013537  d :     0.095413
      dxz     :     0.019168
      dyz     :     0.013787
      dx2y2   :     0.026064
      dxy     :     0.022857

 34 C s       :     2.953794  s :     2.953794
      pz      :     1.115032  p :     3.359041
      px      :     1.134523
      py      :     1.109486
      dz2     :     0.017184  d :     0.064953
      dxz     :     0.008642
      dyz     :     0.012794
      dx2y2   :     0.019911
      dxy     :     0.006422

 35 C s       :     2.890766  s :     2.890766
      pz      :     1.035392  p :     3.173464
      px      :     1.094671
      py      :     1.043402
      dz2     :     0.013965  d :     0.083657
      dxz     :     0.014637
      dyz     :     0.014789
      dx2y2   :     0.022876
      dxy     :     0.017390

 36 C s       :     2.843730  s :     2.843730
      pz      :     1.019732  p :     3.121833
      px      :     1.073099
      py      :     1.029001
      dz2     :     0.015627  d :     0.100742
      dxz     :     0.021563
      dyz     :     0.014683
      dx2y2   :     0.025167
      dxy     :     0.023703

 37 C s       :     2.899958  s :     2.899958
      pz      :     1.042856  p :     3.171906
      px      :     1.087682
      py      :     1.041368
      dz2     :     0.014542  d :     0.082131
      dxz     :     0.016315
      dyz     :     0.014044
      dx2y2   :     0.020711
      dxy     :     0.016519

 38 C s       :     2.906521  s :     2.906521
      pz      :     1.051867  p :     3.196589
      px      :     1.089400
      py      :     1.055322
      dz2     :     0.012649  d :     0.082015
      dxz     :     0.019619
      dyz     :     0.011664
      dx2y2   :     0.017632
      dxy     :     0.020452

 39 C s       :     2.906817  s :     2.906817
      pz      :     1.045671  p :     3.183757
      px      :     1.090081
      py      :     1.048006
      dz2     :     0.009866  d :     0.082419
      dxz     :     0.019728
      dyz     :     0.010959
      dx2y2   :     0.021376
      dxy     :     0.020489

 40 C s       :     2.896578  s :     2.896578
      pz      :     1.032625  p :     3.165361
      px      :     1.100657
      py      :     1.032080
      dz2     :     0.013919  d :     0.080648
      dxz     :     0.016365
      dyz     :     0.014382
      dx2y2   :     0.020384
      dxy     :     0.015598

 41 C s       :     2.842665  s :     2.842665
      pz      :     1.023573  p :     3.091367
      px      :     1.054601
      py      :     1.013192
      dz2     :     0.016937  d :     0.100179
      dxz     :     0.022862
      dyz     :     0.014533
      dx2y2   :     0.023775
      dxy     :     0.022073

 42 H s       :     0.759098  s :     0.759098
      pz      :     0.007929  p :     0.042320
      px      :     0.027158
      py      :     0.007233

 43 H s       :     0.781067  s :     0.781067
      pz      :     0.013459  p :     0.044442
      px      :     0.023332
      py      :     0.007651

 44 H s       :     0.783067  s :     0.783067
      pz      :     0.011128  p :     0.044208
      px      :     0.007790
      py      :     0.025289

 45 H s       :     0.783139  s :     0.783139
      pz      :     0.008220  p :     0.044185
      px      :     0.017304
      py      :     0.018661

 46 H s       :     0.779201  s :     0.779201
      pz      :     0.013643  p :     0.044306
      px      :     0.023129
      py      :     0.007533

 47 H s       :     0.741950  s :     0.741950
      pz      :     0.012691  p :     0.050655
      px      :     0.007450
      py      :     0.030514

 48 H s       :     0.775582  s :     0.775582
      pz      :     0.015916  p :     0.044916
      px      :     0.007137
      py      :     0.021863

 49 H s       :     0.783628  s :     0.783628
      pz      :     0.013196  p :     0.044045
      px      :     0.023301
      py      :     0.007548

 50 H s       :     0.783346  s :     0.783346
      pz      :     0.008078  p :     0.044248
      px      :     0.018305
      py      :     0.017865

 51 H s       :     0.775906  s :     0.775906
      pz      :     0.013578  p :     0.044379
      px      :     0.007515
      py      :     0.023286

 52 H s       :     0.766621  s :     0.766621
      pz      :     0.012476  p :     0.047070
      px      :     0.026871
      py      :     0.007723

 53 H s       :     0.787440  s :     0.787440
      pz      :     0.020469  p :     0.042763
      px      :     0.014131
      py      :     0.008162

 54 H s       :     0.783879  s :     0.783879
      pz      :     0.012928  p :     0.043893
      px      :     0.007847
      py      :     0.023118

 55 H s       :     0.798745  s :     0.798745
      pz      :     0.009338  p :     0.042454
      px      :     0.024850
      py      :     0.008267

 56 H s       :     0.782877  s :     0.782877
      pz      :     0.013152  p :     0.044209
      px      :     0.023790
      py      :     0.007268

 57 H s       :     0.786232  s :     0.786232
      pz      :     0.012154  p :     0.043970
      px      :     0.024483
      py      :     0.007332

 58 H s       :     0.789493  s :     0.789493
      pz      :     0.008834  p :     0.044095
      px      :     0.012940
      py      :     0.022321

 59 H s       :     0.788033  s :     0.788033
      pz      :     0.015263  p :     0.043999
      px      :     0.010434
      py      :     0.018303

 60 H s       :     0.767059  s :     0.767059
      pz      :     0.011981  p :     0.046150
      px      :     0.026548
      py      :     0.007621

 61 H s       :     0.789341  s :     0.789341
      pz      :     0.009808  p :     0.042799
      px      :     0.009415
      py      :     0.023576

 62 H s       :     0.802851  s :     0.802851
      pz      :     0.007858  p :     0.042343
      px      :     0.026957
      py      :     0.007528

 63 H s       :     0.786256  s :     0.786256
      pz      :     0.023760  p :     0.043253
      px      :     0.011146
      py      :     0.008348

 64 H s       :     0.785652  s :     0.785652
      pz      :     0.009568  p :     0.043936
      px      :     0.026733
      py      :     0.007635

 65 H s       :     0.787738  s :     0.787738
      pz      :     0.009629  p :     0.043888
      px      :     0.026420
      py      :     0.007839

 66 H s       :     0.790608  s :     0.790608
      pz      :     0.011804  p :     0.044090
      px      :     0.016347
      py      :     0.015940

 67 H s       :     0.789935  s :     0.789935
      pz      :     0.018722  p :     0.043834
      px      :     0.008802
      py      :     0.016309

 68 H s       :     0.768400  s :     0.768400
      pz      :     0.010045  p :     0.046753
      px      :     0.028505
      py      :     0.008202



                      *****************************
                      * MAYER POPULATION ANALYSIS *
                      *****************************

  NA   - Mulliken gross atomic population
  ZA   - Total nuclear charge
  QA   - Mulliken gross atomic charge
  VA   - Mayer's total valence
  BVA  - Mayer's bonded valence
  FA   - Mayer's free valence

  ATOM       NA         ZA         QA         VA         BVA        FA
  0 O      8.2727     8.0000    -0.2727     2.0931     2.0931    -0.0000
  1 C      5.3258     6.0000     0.6742     3.8870     3.8870    -0.0000
  2 O      8.3355     8.0000    -0.3355     1.8939     1.8939     0.0000
  3 Ni    27.5246    28.0000     0.4754     2.6766     2.6766     0.0000
  4 N      6.8759     7.0000     0.1241     3.4712     3.4712    -0.0000
  5 C      6.0982     6.0000    -0.0982     3.8706     3.8706     0.0000
  6 C      5.7921     6.0000     0.2079     3.4539     3.4539     0.0000
  7 C      6.2178     6.0000    -0.2178     3.7628     3.7628     0.0000
  8 C      6.1613     6.0000    -0.1613     3.8343     3.8343     0.0000
  9 C      6.1141     6.0000    -0.1141     3.7882     3.7882    -0.0000
 10 C      6.1865     6.0000    -0.1865     3.8386     3.8386    -0.0000
 11 C      6.1700     6.0000    -0.1700     3.9923     3.9923    -0.0000
 12 C      5.9183     6.0000     0.0817     3.7628     3.7628     0.0000
 13 C      6.2732     6.0000    -0.2732     3.7481     3.7481     0.0000
 14 C      6.1620     6.0000    -0.1620     3.8330     3.8330     0.0000
 15 C      6.1460     6.0000    -0.1460     3.8145     3.8145    -0.0000
 16 C      6.1552     6.0000    -0.1552     3.8281     3.8281    -0.0000
 17 C      6.1683     6.0000    -0.1683     3.8785     3.8785     0.0000
 18 C      6.6256     6.0000    -0.6256     3.7470     3.7470     0.0000
 19 C      5.7983     6.0000     0.2017     3.2505     3.2505    -0.0000
 20 C      6.4148     6.0000    -0.4148     3.8172     3.8172     0.0000
 21 C      5.7470     6.0000     0.2530     3.5303     3.5303     0.0000
 22 C      6.2696     6.0000    -0.2696     3.7000     3.7000     0.0000
 23 C      6.1695     6.0000    -0.1695     3.7716     3.7716     0.0000
 24 C      6.1703     6.0000    -0.1703     3.7863     3.7863    -0.0000
 25 C      6.2346     6.0000    -0.2346     3.7096     3.7096     0.0000
 26 C      5.9451     6.0000     0.0549     3.9030     3.9030     0.0000
 27 C      5.9887     6.0000     0.0113     2.5797     2.5797    -0.0000
 28 C      5.9081     6.0000     0.0919     2.4686     2.4686    -0.0000
 29 C      5.7227     6.0000     0.2773     3.9629     3.9629    -0.0000
 30 O      8.4072     8.0000    -0.4072     1.9503     1.9503    -0.0000
 31 O      8.4586     8.0000    -0.4586     1.8890     1.8890     0.0000
 32 C      5.8900     6.0000     0.1100     3.9543     3.9543    -0.0000
 33 C      5.8674     6.0000     0.1326     3.3371     3.3371     0.0000
 34 C      6.6335     6.0000    -0.6335     3.8228     3.8228     0.0000
 35 C      6.4200     6.0000    -0.4200     3.7329     3.7329    -0.0000
 36 C      5.8131     6.0000     0.1869     3.6497     3.6497    -0.0000
 37 C      6.2495     6.0000    -0.2495     3.6876     3.6876     0.0000
 38 C      6.1801     6.0000    -0.1801     3.7817     3.7817    -0.0000
 39 C      6.1718     6.0000    -0.1718     3.7878     3.7878    -0.0000
 40 C      6.2197     6.0000    -0.2197     3.6808     3.6808    -0.0000
 41 C      6.0017     6.0000    -0.0017     4.0308     4.0308    -0.0000
 42 H      0.8577     1.0000     0.1423     0.9721     0.9721     0.0000
 43 H      0.8512     1.0000     0.1488     0.9697     0.9697     0.0000
 44 H      0.8475     1.0000     0.1525     0.9678     0.9678     0.0000
 45 H      0.8460     1.0000     0.1540     0.9660     0.9660     0.0000
 46 H      0.8421     1.0000     0.1579     0.9657     0.9657    -0.0000
 47 H      0.7982     1.0000     0.2018     0.9511     0.9511    -0.0000
 48 H      0.8414     1.0000     0.1586     0.9663     0.9663     0.0000
 49 H      0.8483     1.0000     0.1517     0.9679     0.9679     0.0000
 50 H      0.8474     1.0000     0.1526     0.9667     0.9667     0.0000
 51 H      0.8403     1.0000     0.1597     0.9654     0.9654     0.0000
 52 H      0.8422     1.0000     0.1578     0.9700     0.9700    -0.0000
 53 H      0.8253     1.0000     0.1747     0.9546     0.9546     0.0000
 54 H      0.8311     1.0000     0.1689     0.9558     0.9558    -0.0000
 55 H      0.8468     1.0000     0.1532     0.9621     0.9621     0.0000
 56 H      0.8529     1.0000     0.1471     0.9732     0.9732     0.0000
 57 H      0.8572     1.0000     0.1428     0.9724     0.9724     0.0000
 58 H      0.8548     1.0000     0.1452     0.9706     0.9706     0.0000
 59 H      0.8536     1.0000     0.1464     0.9699     0.9699    -0.0000
 60 H      0.8334     1.0000     0.1666     0.9689     0.9689    -0.0000
 61 H      0.8333     1.0000     0.1667     0.9532     0.9532     0.0000
 62 H      0.8565     1.0000     0.1435     0.9653     0.9653     0.0000
 63 H      0.8278     1.0000     0.1722     0.9533     0.9533     0.0000
 64 H      0.8535     1.0000     0.1465     0.9746     0.9746     0.0000
 65 H      0.8591     1.0000     0.1409     0.9732     0.9732     0.0000
 66 H      0.8564     1.0000     0.1436     0.9714     0.9714     0.0000
 67 H      0.8562     1.0000     0.1438     0.9704     0.9704     0.0000
 68 H      0.8356     1.0000     0.1644     0.9676     0.9676    -0.0000

  Mayer bond orders larger than 0.100000
B(  0-O ,  1-C ) :   2.0323 B(  1-C ,  2-O ) :   1.7515 B(  2-O ,  3-Ni) :   0.1338 
B(  3-Ni,  4-N ) :   0.6378 B(  3-Ni, 30-O ) :   0.5418 B(  3-Ni, 31-O ) :   0.7664 
B(  3-Ni, 32-C ) :   0.1341 B(  4-N ,  5-C ) :   1.7043 B(  4-N , 12-C ) :   1.0799 
B(  5-C ,  6-C ) :   0.9629 B(  5-C , 42-H ) :   0.9331 B(  6-C ,  7-C ) :   1.2671 
B(  6-C , 11-C ) :   1.3823 B(  7-C ,  8-C ) :   1.4176 B(  7-C , 43-H ) :   0.9500 
B(  8-C ,  9-C ) :   1.4071 B(  8-C , 44-H ) :   0.9466 B(  9-C , 10-C ) :   1.3720 
B(  9-C , 45-H ) :   0.9472 B( 10-C , 11-C ) :   1.4776 B( 10-C , 46-H ) :   0.9444 
B( 11-C , 47-H ) :   0.9230 B( 12-C , 13-C ) :   1.2913 B( 12-C , 17-C ) :   1.3518 
B( 13-C , 14-C ) :   1.4034 B( 13-C , 48-H ) :   0.9350 B( 14-C , 15-C ) :   1.4091 
B( 14-C , 49-H ) :   0.9506 B( 15-C , 16-C ) :   1.3902 B( 15-C , 50-H ) :   0.9453 
B( 16-C , 17-C ) :   1.4274 B( 16-C , 51-H ) :   0.9365 B( 17-C , 52-H ) :   0.9248 
B( 18-C , 19-C ) :   0.7327 B( 18-C , 53-H ) :   0.9582 B( 18-C , 54-H ) :   0.9813 
B( 18-C , 55-H ) :   1.0035 B( 19-C , 20-C ) :   1.4492 B( 19-C , 32-C ) :   1.2496 
B( 20-C , 21-C ) :   1.1942 B( 20-C , 56-H ) :   0.8797 B( 21-C , 22-C ) :   1.1739 
B( 21-C , 26-C ) :   1.3674 B( 22-C , 23-C ) :   1.4811 B( 22-C , 57-H ) :   0.9405 
B( 23-C , 24-C ) :   1.2647 B( 23-C , 58-H ) :   0.9497 B( 24-C , 25-C ) :   1.5244 
B( 24-C , 59-H ) :   0.9488 B( 25-C , 26-C ) :   1.3645 B( 25-C , 27-C ) :  -0.1184 
B( 25-C , 60-H ) :   0.9112 B( 26-C , 27-C ) :   1.0446 B( 27-C , 28-C ) :   0.5090 
B( 27-C , 29-C ) :  -0.1526 B( 27-C , 31-O ) :  -0.1425 B( 27-C , 32-C ) :   1.4531 
B( 28-C , 29-C ) :   1.3182 B( 28-C , 32-C ) :  -0.1418 B( 28-C , 36-C ) :  -0.1203 
B( 28-C , 40-C ) :  -0.1518 B( 28-C , 41-C ) :   1.0252 B( 29-C , 30-O ) :   1.2205 
B( 29-C , 33-C ) :   1.2996 B( 31-O , 32-C ) :   1.1205 B( 33-C , 34-C ) :   0.7351 
B( 33-C , 35-C ) :   1.4324 B( 34-C , 61-H ) :   0.9771 B( 34-C , 62-H ) :   0.9986 
B( 34-C , 63-H ) :   0.9665 B( 35-C , 36-C ) :   1.2081 B( 35-C , 64-H ) :   0.8804 
B( 36-C , 37-C ) :   1.1646 B( 36-C , 41-C ) :   1.4751 B( 37-C , 38-C ) :   1.4849 
B( 37-C , 65-H ) :   0.9445 B( 38-C , 39-C ) :   1.2707 B( 38-C , 66-H ) :   0.9469 
B( 39-C , 40-C ) :   1.5340 B( 39-C , 67-H ) :   0.9450 B( 40-C , 41-C ) :   1.3550 
B( 40-C , 68-H ) :   0.8989 

-------
TIMINGS
-------

Total SCF time: 0 days 0 hours 0 min 19 sec 

Total time                  ....      19.593 sec
Sum of individual times     ....      18.173 sec  ( 92.8%)

SCF preparation             ....       0.606 sec  (  3.1%)
Fock matrix formation       ....      15.556 sec  ( 79.4%)
  Startup                   ....       0.029 sec  (  0.2% of F)
  Split-RI-J                ....       5.779 sec  ( 37.2% of F)
  XC integration            ....      10.788 sec  ( 69.3% of F)
    XC Preparation          ....       0.000 sec  (  0.0% of XC)
    Basis function eval.    ....       1.320 sec  ( 12.2% of XC)
    Density eval.           ....       4.578 sec  ( 42.4% of XC)
    XC-Functional eval.     ....       0.422 sec  (  3.9% of XC)
    XC-Potential eval.      ....       3.940 sec  ( 36.5% of XC)
Diagonalization             ....       0.000 sec  (  0.0%)
Density matrix formation    ....       0.155 sec  (  0.8%)
Total Energy calculation    ....       0.044 sec  (  0.2%)
Population analysis         ....       0.218 sec  (  1.1%)
Orbital Transformation      ....       0.173 sec  (  0.9%)
Orbital Orthonormalization  ....       0.000 sec  (  0.0%)
DIIS solution               ....       0.198 sec  (  1.0%)
SOSCF solution              ....       1.222 sec  (  6.2%)
Finished LeanSCF after  19.8 sec

Maximum memory used throughout the entire LEANSCF-calculation: 137.8 MB
[1769528241.726578] [node236:2527695:0]     ucp_context.c:1234 UCX  WARN  transport 'ib' is not available, please use one or more of: mm, posix, self, shm, sm, sysv, tcp
[1769528241.756818] [node236:2527696:0]     ucp_context.c:1234 UCX  WARN  transport 'ib' is not available, please use one or more of: mm, posix, self, shm, sm, sysv, tcp
[1769528241.771203] [node236:2527697:0]     ucp_context.c:1234 UCX  WARN  transport 'ib' is not available, please use one or more of: mm, posix, self, shm, sm, sysv, tcp
[1769528241.780053] [node236:2527700:0]     ucp_context.c:1234 UCX  WARN  transport 'ib' is not available, please use one or more of: mm, posix, self, shm, sm, sysv, tcp
[1769528241.786339] [node236:2527704:0]     ucp_context.c:1234 UCX  WARN  transport 'ib' is not available, please use one or more of: mm, posix, self, shm, sm, sysv, tcp
[1769528241.792451] [node236:2527706:0]     ucp_context.c:1234 UCX  WARN  transport 'ib' is not available, please use one or more of: mm, posix, self, shm, sm, sysv, tcp
[1769528241.799102] [node236:2527713:0]     ucp_context.c:1234 UCX  WARN  transport 'ib' is not available, please use one or more of: mm, posix, self, shm, sm, sysv, tcp
[1769528241.799585] [node236:2527710:0]     ucp_context.c:1234 UCX  WARN  transport 'ib' is not available, please use one or more of: mm, posix, self, shm, sm, sysv, tcp


           ************************************************************
           *        Program running with 8 parallel MPI-processes     *
           *              working on a common directory               *
           ************************************************************

------------------------------------------------------------------------------
                         ORCA PROPERTY INTEGRAL CALCULATIONS
------------------------------------------------------------------------------

GBWName                                   ... 0_0_confsstruct_1.gbw
Number of atoms                           ...     69
Number of basis functions                 ...    972
Max core memory                           ...  12000 MB

Dipole integrals                          ... YES
Quadrupole integrals                      ...  NO
Linear momentum integrals                 ...  NO
Angular momentum integrals                ...  NO
Higher moments length integrals           ...  NO
Higher moments velocity integrals         ...  NO
Kinetic energy integrals                  ...  NO
GIAO right hand sides                     ...  NO
GIAO dipole derivative integrals          ...  NO
SOC integrals                             ...  NO
EPR diamagnetic integrals (GIAO)          ...  NO
EPR gauge integrals                       ...  NO
Field gradient integrals                  ...  NO (   0 nuclei)
Spin-dipole/Fermi contact integrals       ...  NO (   0 nuclei)
Contact density integrals                 ...  NO (   0 nuclei)
Nucleus-orbit integrals                   ...  NO (   0 nuclei)
Geometric perturbations                   ... YES (  69 nuclei)

Choice of electric origin   ... Center of mass
Position of electric origin ... (  6.7684, -8.6009, -4.6828) 
Choice of magnetic origin   ... GIAO
Position of magnetic origin ... (  0.0000,  0.0000,  0.0000) 

Calculating integrals                     ... Electric Dipole (Length)     done (  0.0 sec)
Calculating integrals                     ... Geometrical perturbation right hand sides

-----------------------
GEOMETRIC PERTURBATIONS (69 nuclei)
-----------------------

MaxCore                            ...  12000 MB
Number of batches                  ...      1

BATCH   0: Atoms    0 -   68 (207 perturbations)
   => H(core) and overlap derivative integrals     ... done (     2.0 sec)
   => Making and storing internal U-coefficients   ... done (     0.4 sec)
   => RI-J derivative integrals                    ... 