
                                 *****************
                                 * O   R   C   A *
                                 *****************

                                            #,                                       
                                            ###                                      
                                            ####                                     
                                            #####                                    
                                            ######                                   
                                           ########,                                 
                                     ,,################,,,,,                         
                               ,,#################################,,                 
                          ,,##########################################,,             
                       ,#########################################, ''#####,          
                    ,#############################################,,   '####,        
                  ,##################################################,,,,####,       
                ,###########''''           ''''###############################       
              ,#####''   ,,,,##########,,,,          '''####'''          '####       
            ,##' ,,,,###########################,,,                        '##       
           ' ,,###''''                  '''############,,,                           
         ,,##''                                '''############,,,,        ,,,,,,###''
      ,#''                                            '''#######################'''  
     '                                                          ''''####''''         
             ,#######,   #######,   ,#######,      ##                                
            ,#'     '#,  ##    ##  ,#'     '#,    #''#        ,####,    ,#,          
            ##       ##  ##   ,#'  ##            #'  '#       #'       ,# #          
            ##       ##  #######   ##           ,######,      #####,      #          
            '#,     ,#'  ##    ##  '#,     ,#' ,#      #,     #,   #      #          
             '#######'   ##     ##  '#######'  #'      '#     '####' #    #          



                #########################################################
                #                        -***-                          #
                #          Department of theory and spectroscopy        #
                #                                                       #
                #                      Frank Neese                      #
                #                                                       #
                #     Directorship, Architecture, Infrastructure        #
                #                    SHARK, DRIVERS                     #
                #        Core code/Algorithms in most modules           #
                #                                                       #
                #        Max Planck Institute fuer Kohlenforschung      #
                #                Kaiser Wilhelm Platz 1                 #
                #                 D-45470 Muelheim/Ruhr                 #
                #                      Germany                          #
                #                                                       #
                #                  All rights reserved                  #
                #                        -***-                          #
                #########################################################


                         Program Version 6.1.0  -  RELEASE   -
                                (GIT: $679e74b$)
                          ($2025-06-10 18:02:51 +0200$)


 With contributions from (in alphabetic order):
[Max-Planck-Institut fuer Kohlenforschung]                               
  Daniel Aravena         : Magnetic Suceptibility                        
  Michael Atanasov       : Ab Initio Ligand Field Theory (pilot matlab implementation)
  Alexander A. Auer      : GIAO ZORA, VPT2 properties, NMR spectrum      
  Ute Becker             : All parallelization in ORCA, NUMFREQ, NUMCALC 
  Giovanni Bistoni       : ED, misc. LED, open-shell LED, HFLD           
  Dmytro Bykov           : pre 5.0 version of the SCF Hessian            
  Marcos Casanova-Páez   : Triplet and SCS-CIS(D). UHF-(DLPNO)-IP/EA/STEOM-CCSD. UHF-CVS-IP/STEOM-CCSD   
  Vijay G. Chilkuri      : MRCI spin determinant printing, contributions to CSF-ICE 
  Pauline Colinet        : FMM embedding                                 
  Dipayan Datta          : RHF DLPNO-CCSD density                        
  Achintya Kumar Dutta   : EOM-CC, STEOM-CC                              
  Nicolas Foglia         : Exact transition moments, OPA infrastructure, MCD improvements    
  Dmitry Ganyushin       : Spin-Orbit,Spin-Spin,Magnetic field MRCI      
  Miquel Garcia-Rates    : C-PCM and meta-GGA Hessian, CCSD/C-PCM, Gaussian charge scheme 
  Tiago L. C. Gouveia    : GS-ROHF, GS-ROCIS                             
  Yang Guo               : DLPNO-NEVPT2, F12-NEVPT2, CIM, IAO-localization        
  Andreas Hansen         : Spin unrestricted coupled pair/coupled cluster methods 
  Ingolf Harden          : AUTO-CI MPn and infrastructure                
  Benjamin Helmich-Paris : MC-RPA, TRAH-(SCF,CASSCF), AVAS, COSX integrals, SCF dyn. polar., MC-PDFT, srDFT 
  Lee Huntington         : MR-EOM, pCC                                   
  Robert Izsak           : Overlap fitted RIJCOSX, COSX-SCS-MP3, EOM     
  Riya Kayal             : Wick's Theorem for AUTO-CI, AUTO-CI UHF-CCSDT 
  Emily Kempfer          : AUTO-CI RHF CISDT and CCSDT, approximate NEVPT4
  Christian Kollmar      : KDIIS, OOCD, Brueckner-CCSD(T), CCSD density, CASPT2, CASPT2-K, improved NEVPT2 
  Axel Koslowski         : Symmetry handling                             
  Simone Kossmann        : meta-GGA functionals, TD-DFT gradient, OOMP2, (MP2 Hessian; deprecated post 5.0) 
  Lucas Lang             : DCDCAS, Hyperfine gauge corrections, ICE-SOC+SSC
  Marvin Lechner         : AUTO-CI (C++ implementation), FIC-MRCC        
  Spencer Leger          : CASSCF response                               
  Dagmar Lenk            : GEPOL surface, SMD, ORCA-2-JSON               
  Dimitrios Liakos       : Extrapolation schemes; Compound Job, Property file
  Dimitrios Manganas     : Further ROCIS development; embedding schemes. LFT, Crystal Embedding 
  Dimitrios Pantazis     : SARC Basis sets                               
  Anastasios Papadopoulos: AUTO-CI, single reference methods and gradients 
  Taras Petrenko         : pre 6.0 DFT Hessian and TD-DFT gradient,  ECA, NRVS 
  Petra Pikulova         : Analytic Raman intensities                    
  Peter Pinski           : DLPNO-MP2, DLPNO-MP2 Gradient                 
  Shashank Vittal Rao    : ES-AILFT, MagRelax                            
  Christoph Reimann      : Effective Core Potentials                     
  Marius Retegan         : Local ZFS, SOC                                
  Christoph Riplinger    : Optimizer, TS searches, QM/MM, DLPNO-CCSD(T), (RO)-DLPNO pert. Triples 
  Michael Roemelt        : Original ROCIS implementation, recursive CI coupling coefficients
  Masaaki Saitow         : Open-shell DLPNO-CCSD energy and density      
  Barbara Sandhoefer     : DKH picture change effects                    
  Yorick L. A. Schmerwitz: GMF and freeze-and-release deltaSCF, NEB S-IDPP initial path                    
  Kantharuban Sivalingam : CASSCF convergence/infrastructure, NEVPT2, NEVPT3, NEVPT4(SD), FIC-MRCI and CEPA variants
  Bernardo de Souza      : ESD, SOC TD-DFT                               
  Georgi L. Stoychev     : AutoAux, RI-MP2 NMR, DLPNO-MP2 response, X2C  
  Van Anh Tran           : RI-MP2 g-tensors                              
  Willem Van den Heuvel  : Paramagnetic NMR                              
  Zikuan Wang            : NOTCH, Electric field optimization            
  Frank Wennmohs         : Technical directorship and infrastructure     
  Hang Xu                : AUTO-CI-Response properties                   
                                                                         
[FACCTs GmbH]                                                            
  Markus Bursch, Nicolas Foglia, Miquel Garcia-Rates, Ingolf Harden, Hagen Neugebauer, Anastasios Papadopoulos, 
  Christoph Riplinger, Bernardo de Souza, Georgi L. Stoychev                                                    
                                                                 
  APM, various basis sets, CI-OPT, improved COSX, DLPNO-Multilevel,           
  DOCKER, DRACO, updates on ESD, Fragmentator, GOAT, IRC, LR-CPCM, L-BFGS, MBIS, meta-GGA TD-DFT gradient, ML-optimized integration grids, 
  MM, NACMEs, nearIR, NEB, NEB-TS, NL-DFT gradient (VV10), 2- and 3-layer-ONIOM, interface openCOSMO-RS, QMMM,   
  Crystal-QMMM, RESP, rigid body optimization, SF, symmetry and pop. for TD-DFT, various functionals, SOLVATOR                                   
                                                                         
[Other institutions]                                                     
  V. Asgeirsson          : NEB                                           
  Christoph Bannwarth    : sTDA-DFT, sTD-DFT, PBEh-3c, B97-3c, D3        
  Giovanni Bistoni       : ETS/NOCV, ADLD/ADEX, COVALED                  
  Martin Brehm           : Molecular dynamics                            
  Ronald Cardenas        : ETS/NOCV                                      
  Martina Colucci        : COVALED                                       
  Sebastian Ehlert       : rSCAN, r2SCAN, r2SCAN-3c, D4, dhf basis sets  
  Marvin Friede          : D4 for Fr, Ra, Ac-Lr                          
  Lars Goerigk           : TD-DFT with DH, B97 family of functionals     
  Stefan Grimme          : VdW corrections, initial TS optimization, DFT functionals, gCP, sTDA/sTD-DF 
  Waldemar Hujo          : DFT-NL                                        
  H. Jonsson             : NEB                                           
  Holger Kruse           : gCP                                           
  Marcel Mueller         : wB97X-3c, vDZP basis set                      
  Hagen Neugebauer       : wr2SCAN, Native XTB                           
  Gianluca Regni         : ADLD/ADEX                                     
  Tobias Risthaus        : pre 6.0 range-separated hybrid DFT and stability analysis
  Lukas Wittmann         : regularized MP2, r2SCAN double-hybrids, wr2SCAN        
                                                                         
We gratefully acknowledge several colleagues who have allowed us to      
interface, adapt or use parts of their codes:                            
  Ed Valeev, F. Pavosevic, A. Kumar             : LibInt (2-el integral package), F12 methods 
  Garnet Chan, S. Sharma, J. Yang, R. Olivares  : DMRG                   
  Ulf Ekstrom                                   : XCFun DFT Library      
  Mihaly Kallay                                 : mrcc  (arbitrary order and MRCC methods)
  Frank Weinhold                                : gennbo (NPA and NBO analysis)           
  Simon Mueller                                 : openCOSMO-RS                            
  Christopher J. Cramer and Donald G. Truhlar   : smd solvation model                     
  S Lehtola, MJT Oliveira, MAL Marques          : LibXC Library                           
  Liviu Ungur et al                             : ANISO software                          


 Your calculation uses the libint2 library for the computation of 2-el integrals
 For citations please refer to: http://libint.valeyev.net

 Your ORCA version has been built with support for libXC version: 7.0.0
 For citations please refer to: https://libxc.gitlab.io

 This ORCA versions uses:
   CBLAS   interface :  Fast vector & matrix operations
   LAPACKE interface :  Fast linear algebra routines
   SCALAPACK package :  Parallel linear algebra routines
   Shared memory     :  Shared parallel matrices
   BLAS/LAPACK       :  OpenBLAS 0.3.29  USE64BITINT DYNAMIC_ARCH NO_AFFINITY Cooperlake SINGLE_THREADED
        Core in use  :  Cooperlake
   Copyright (c) 2011-2014, The OpenBLAS Project


  ***********************************
  * Starting time: Tue Jan 27 15:56:48 2026
  * Host name:     node236.cluster
  * Process ID:    2480422
  * Working dir.:  /scratch/56627289
  ***********************************

NOTE: MaxCore=12000 MB was set to SCF,MP2,MDCI,CIPSI,MRCI,RASCI and CIS
      => If you want to overwrite this, your respective input block should be placed after the MaxCore statement
Your calculation utilizes the geometrical counterpoise correction gCP
Please cite in your paper:
H.Kruse, S. Grimme J.Chem.Phys., 136, (2012), 154101 
   

Your calculation utilizes the atom-pairwise dispersion correction
based on EEQ partial charges (D4)


================================================================================

----- Orbital basis set information -----
Your calculation utilizes the basis: def2-mTZVPP
   Stefan Grimme, Andreas Hansen, Sebastian Ehlert, and Jan-Michael Mewes 
   J. Chem. Phys. 154, 064103 (2021). DOI: 10.1063/5.0040021

----- AuxJ basis set information -----
Your calculation utilizes the basis: def2-mTZVPP/J
   Stefan Grimme, Andreas Hansen, Sebastian Ehlert, and Jan-Michael Mewes 
   J. Chem. Phys. 154, 000000 (2021). DOI: 10.1063/5.0040021

================================================================================
                                        WARNINGS
                       Please study these warnings very carefully!
================================================================================



WARNING: SCAN, rSCAN, or r2SCAN functional requested.
  ===> : libXC variant has now been activated.



WARNING: Geometry Optimization
  ===> : Switching off AutoStart
         For restart on a previous wavefunction, please use MOREAD

================================================================================
                                       INPUT FILE
================================================================================
NAME = 0_1_confsstruct_2.inp
|  1> !r2scan-3c opt freq 
|  2> %pal 
|  3> nprocs 8 
|  4> end 
|  5> %maxcore 12000
|  6>  
|  7> * XYZ 0 1 
|  8> O      6.82631600     -6.46566700     -4.72392300
|  9> C      5.79325100     -5.82840800     -4.80956000
| 10> O      5.54050400     -4.77469100     -4.11585600
| 11> Ni      3.75397200     -4.48323300     -4.18317000
| 12> N      3.80778800     -5.04216800     -5.93930300
| 13> C      4.65610000     -6.22932500     -5.78084200
| 14> C      3.83289000     -7.38891000     -5.26576400
| 15> C      2.73540900     -7.81416800     -6.01021000
| 16> C      1.93530800     -8.84945000     -5.56457100
| 17> C      2.22163000     -9.48101800     -4.36452200
| 18> C      3.32224700     -9.08088100     -3.62806000
| 19> C      4.12627300     -8.04449000     -4.07637200
| 20> C      4.23759200     -4.14004300     -6.89252900
| 21> C      4.50530200     -2.80437400     -6.55386700
| 22> C      4.82555700     -1.87321000     -7.51914600
| 23> C      4.89815600     -2.24537200     -8.85215200
| 24> C      4.66016900     -3.56538700     -9.20108200
| 25> C      4.33415000     -4.50294400     -8.24307900
| 26> N      3.74469300     -3.94335600     -2.38817400
| 27> C      3.92723300     -5.31138300     -1.90348200
| 28> C      2.42110000     -3.45450100     -2.01387200
| 29> C      1.40703500     -4.16380200     -2.89509900
| 30> N      1.90008000     -4.17950400     -4.28090200
| 31> C      1.08544700     -5.15654100     -5.01767900
| 32> C      1.72420800     -2.84122100     -4.91118500
| 33> C      0.30738300     -2.31860400     -4.94760200
| 34> C     -0.52052200     -2.60461900     -6.02832100
| 35> C     -1.81905100     -2.12938600     -6.07010300
| 36> C     -2.30981900     -1.35260400     -5.03418200
| 37> C     -1.48871200     -1.04002200     -3.96512000
| 38> C     -0.18974600     -1.51670200     -3.92558700
| 39> C      4.80812300     -3.05380200     -1.87216300
| 40> C      4.86523000     -2.97119400     -0.36747200
| 41> C      5.66975100     -3.84548600      0.35477600
| 42> C      5.70793200     -3.79165100      1.73671000
| 43> C      4.94504400     -2.85807700      2.41749000
| 44> C      4.15444400     -1.97058400      1.70817800
| 45> C      4.11691100     -2.02681900      0.32594700
| 46> H      5.10762300     -6.52555500     -6.74019500
| 47> H      2.51540300     -7.32249500     -6.94627300
| 48> H      1.08859000     -9.16961700     -6.15501700
| 49> H      1.59713100    -10.28987900     -4.01366900
| 50> H      3.56310200     -9.58188300     -2.70116000
| 51> H      5.00636900     -7.77013600     -3.51490000
| 52> H      4.50449400     -2.53445600     -5.49321200
| 53> H      5.03820000     -0.85293700     -7.23132100
| 54> H      5.15239600     -1.51853200     -9.60883900
| 55> H      4.72793500     -3.86758000    -10.23681600
| 56> H      4.14206300     -5.52595400     -8.53337600
| 57> H      3.31482000     -6.02709700     -2.46470800
| 58> H      4.97225100     -5.60038300     -2.00910200
| 59> H      3.65851000     -5.39165800     -0.83881900
| 60> H      2.38157800     -2.37635000     -2.18627100
| 61> H      2.20637900     -3.63434300     -0.95029100
| 62> H      1.28520400     -5.19659600     -2.56076800
| 63> H      0.42192800     -3.68346300     -2.83381600
| 64> H      0.01953200     -4.92701800     -4.91776900
| 65> H      1.36765300     -5.14482400     -6.06678200
| 66> H      1.26955100     -6.15750200     -4.62996000
| 67> H      2.35009900     -2.12231200     -4.37631500
| 68> H      2.09323900     -2.92140800     -5.93608200
| 69> H     -0.13946400     -3.19308800     -6.84963700
| 70> H     -2.44805500     -2.36145500     -6.91640800
| 71> H     -3.32307100     -0.98166700     -5.06587200
| 72> H     -1.85717200     -0.41944100     -3.16171400
| 73> H      0.44608700     -1.24404000     -3.09438900
| 74> H      4.63657100     -2.05732300     -2.29153400
| 75> H      5.75743300     -3.42745100     -2.26326200
| 76> H      6.28186200     -4.56451100     -0.16932600
| 77> H      6.33867200     -4.47686400      2.28326200
| 78> H      4.97472700     -2.81468300      3.49591600
| 79> H      3.56851500     -1.22925500      2.23159200
| 80> H      3.50906900     -1.31600600     -0.21686100
| 81> 
| 82> **                         ****END OF INPUT****
================================================================================

                       *****************************
                       * Geometry Optimization Run *
                       *****************************

Geometry optimization settings:
Update method            Update   .... BFGS
Choice of coordinates    CoordSys .... (2022) Redundant Internals
Initial Hessian          InHess   .... Almloef's Model
Max. no of cycles        MaxIter  .... 219

Convergence Tolerances:
Energy Change            TolE     ....  5.0000e-06 Eh
Max. Gradient            TolMAXG  ....  3.0000e-04 Eh/bohr
RMS Gradient             TolRMSG  ....  1.0000e-04 Eh/bohr
Max. Displacement        TolMAXD  ....  4.0000e-03 bohr
RMS Displacement         TolRMSD  ....  2.0000e-03 bohr
Strict Convergence                .... False

------------------------------------------------------------------------------
                        ORCA OPTIMIZATION COORDINATE SETUP
------------------------------------------------------------------------------

The optimization will be done in redundant internal coordinates (2022)
Making redundant internal coordinates   ...  (2022 redundants) done
Evaluating the initial hessian          ...  (Almloef) done
Evaluating the coordinates              ...  done
Calculating the B-matrix                .... done
Calculating the G-matrix                .... done
The number of degrees of freedom        ....  641

    -----------------------------------------------------------------
                    Redundant Internal Coordinates


    -----------------------------------------------------------------
         Definition                    Initial Value    Approx d2E/dq
    -----------------------------------------------------------------
      1. B(C   1,O   0)                  1.2168         1.057231   
      2. B(O   2,C   1)                  1.2866         0.818069   
      3. B(Ni  3,C   1)                  2.5220         0.098814   
      4. B(Ni  3,O   2)                  1.8114         1.204151   
      5. B(N   4,Ni  3)                  1.8437         1.069343   
      6. B(C   5,N   4)                  1.4677         0.420670   
      7. B(C   5,Ni  3)                  2.5328         0.094962   
      8. B(C   5,C   1)                  1.5483         0.349285   
      9. B(C   6,C   5)                  1.5125         0.398399   
     10. B(C   7,C   6)                  1.3927         0.618715   
     11. B(C   8,C   7)                  1.3822         0.642884   
     12. B(C   9,C   8)                  1.3860         0.634062   
     13. B(C  10,C   9)                  1.3834         0.640089   
     14. B(C  11,C  10)                  1.3862         0.633582   
     15. B(C  11,C   6)                  1.3894         0.626109   
     16. B(C  12,N   4)                  1.3810         0.578378   
     17. B(C  12,Ni  3)                  2.7735         0.039227   
     18. B(C  13,C  12)                  1.4037         0.594131   
     19. B(C  14,C  13)                  1.3789         0.650776   
     20. B(C  15,C  14)                  1.3859         0.634311   
     21. B(C  16,C  15)                  1.3859         0.634185   
     22. B(C  17,C  16)                  1.3795         0.649324   
     23. B(C  17,C  12)                  1.4018         0.598320   
     24. B(N  18,Ni  3)                  1.8745         0.955192   
     25. B(C  19,N  18)                  1.4628         0.428301   
     26. B(C  19,Ni  3)                  2.4316         0.137723   
     27. B(C  20,N  18)                  1.4598         0.433046   
     28. B(C  20,Ni  3)                  2.7460         0.043391   
     29. B(C  21,C  20)                  1.5192         0.388681   
     30. B(C  21,Ni  3)                  2.6962         0.052116   
     31. B(N  22,Ni  3)                  1.8811         0.931976   
     32. B(N  22,C  21)                  1.4710         0.415597   
     33. B(C  23,N  22)                  1.4701         0.417013   
     34. B(C  24,N  22)                  1.4897         0.387989   
     35. B(C  24,Ni  3)                  2.7104         0.049463   
     36. B(C  25,C  24)                  1.5106         0.401202   
     37. B(C  26,C  25)                  1.3911         0.622256   
     38. B(C  27,C  26)                  1.3834         0.640152   
     39. B(C  28,C  27)                  1.3847         0.637096   
     40. B(C  29,C  28)                  1.3838         0.639262   
     41. B(C  30,C  29)                  1.3842         0.638176   
     42. B(C  30,C  25)                  1.3909         0.622655   
     43. B(C  31,N  18)                  1.4793         0.403027   
     44. B(C  32,C  31)                  1.5080         0.404963   
     45. B(C  33,C  32)                  1.3904         0.623821   
     46. B(C  34,C  33)                  1.3835         0.639874   
     47. B(C  35,C  34)                  1.3846         0.637397   
     48. B(C  36,C  35)                  1.3841         0.638416   
     49. B(C  37,C  36)                  1.3839         0.638994   
     50. B(C  37,C  32)                  1.3902         0.624338   
     51. B(H  38,C   5)                  1.1009         0.345964   
     52. B(H  39,C   7)                  1.0800         0.373601   
     53. B(H  40,C   8)                  1.0808         0.372519   
     54. B(H  41,C   9)                  1.0804         0.372970   
     55. B(H  42,C  10)                  1.0808         0.372460   
     56. B(H  43,C  11)                  1.0794         0.374408   
     57. B(H  44,C  13)                  1.0945         0.354246   
     58. B(H  45,C  14)                  1.0812         0.371916   
     59. B(H  46,C  15)                  1.0796         0.374141   
     60. B(H  47,C  16)                  1.0810         0.372144   
     61. B(H  48,C  17)                  1.0806         0.372738   
     62. B(H  49,C  19)                  1.0965         0.351628   
     63. B(H  50,C  19)                  1.0894         0.360927   
     64. B(H  51,C  19)                  1.1010         0.345860   
     65. B(H  52,C  20)                  1.0926         0.356726   
     66. B(H  53,C  20)                  1.0998         0.347313   
     67. B(H  54,C  21)                  1.0924         0.356972   
     68. B(H  55,C  21)                  1.0977         0.350073   
     69. B(H  56,C  23)                  1.0949         0.353657   
     70. B(H  57,C  23)                  1.0865         0.364814   
     71. B(H  58,C  23)                  1.0891         0.361290   
     72. B(H  59,C  24)                  1.0930         0.356149   
     73. B(H  60,C  24)                  1.0923         0.357125   
     74. B(H  61,C  26)                  1.0798         0.373790   
     75. B(H  62,C  27)                  1.0797         0.373998   
     76. B(H  63,C  28)                  1.0795         0.374288   
     77. B(H  64,C  29)                  1.0800         0.373610   
     78. B(H  65,C  30)                  1.0814         0.371600   
     79. B(H  66,C  31)                  1.0947         0.353993   
     80. B(H  67,C  31)                  1.0926         0.356685   
     81. B(H  68,C  33)                  1.0800         0.373600   
     82. B(H  69,C  34)                  1.0798         0.373785   
     83. B(H  70,C  35)                  1.0797         0.373977   
     84. B(H  71,C  36)                  1.0802         0.373293   
     85. B(H  72,C  37)                  1.0814         0.371695   
     86. A(O   2,C   1,C   5)          113.9548         0.409006   
     87. A(Ni  3,C   1,C   5)           72.5452         0.319956   
     88. A(O   0,C   1,C   5)          122.1460         0.428131   
     89. A(O   0,C   1,Ni  3)          161.5025         0.383312   
     90. A(O   2,C   1,Ni  3)           43.1495         0.366714   
     91. A(O   0,C   1,O   2)          123.8991         0.496790   
     92. A(C   1,O   2,Ni  3)          107.7872         0.575217   
     93. A(O   2,Ni  3,C  21)          149.2978         0.392608   
     94. A(O   2,Ni  3,N   4)           87.5831         0.687085   
     95. A(C  12,Ni  3,C  20)          144.0947         0.223976   
     96. A(O   2,Ni  3,C  20)          120.6398         0.380276   
     97. A(C   5,Ni  3,C  12)           53.6297         0.250156   
     98. A(C   1,Ni  3,C  19)           89.6323         0.305075   
     99. A(N  22,Ni  3,C  24)           31.8094         0.372135   
    100. A(C  20,Ni  3,C  21)           32.4029         0.232941   
    101. A(C  21,Ni  3,N  22)           31.5515         0.375502   
    102. A(C  19,Ni  3,C  24)          120.7643         0.273749   
    103. A(C   5,Ni  3,C  24)          120.9940         0.258840   
    104. A(N   4,Ni  3,C  24)           87.1154         0.381085   
    105. A(C   5,Ni  3,C  21)          133.8735         0.260860   
    106. A(C   1,Ni  3,C  21)          152.3389         0.262413   
    107. A(C  12,Ni  3,C  19)          161.0057         0.264303   
    108. A(N  18,Ni  3,C  21)           60.2693         0.377102   
    109. A(N  18,Ni  3,C  20)           29.9121         0.365400   
    110. A(C  19,Ni  3,C  21)           69.7867         0.275946   
    111. A(O   2,Ni  3,C  24)          147.7861         0.389040   
    112. A(C   1,Ni  3,C  20)          142.0453         0.255369   
    113. A(C  20,Ni  3,N  22)           60.1459         0.363865   
    114. A(O   2,Ni  3,C  19)           80.7982         0.467301   
    115. A(C  20,Ni  3,C  24)           67.7739         0.231249   
    116. A(N  18,Ni  3,C  19)           36.9338         0.447980   
    117. A(N   4,Ni  3,C  19)          141.9664         0.457270   
    118. A(C   5,Ni  3,N  22)          115.4390         0.417176   
    119. A(O   2,Ni  3,C   5)           63.9748         0.436771   
    120. A(O   2,Ni  3,N  18)           90.8961         0.671997   
    121. A(N   4,Ni  3,C  12)           26.0978         0.366150   
    122. A(C  21,Ni  3,C  24)           53.4632         0.237272   
    123. A(C  19,Ni  3,C  20)           54.6591         0.268353   
    124. A(N   4,Ni  3,N  22)           91.6176         0.653387   
    125. A(C  12,Ni  3,C  24)           78.0668         0.228038   
    126. A(O   2,Ni  3,C  12)           83.3522         0.373699   
    127. A(N  18,Ni  3,C  24)           94.5323         0.373716   
    128. A(C   1,Ni  3,N  22)          150.4694         0.420143   
    129. A(C   5,Ni  3,C  20)          158.3485         0.253879   
    130. A(C  12,Ni  3,C  21)          127.1440         0.229691   
    131. A(C   1,Ni  3,O   2)           29.0633         0.439915   
    132. A(C   1,Ni  3,C   5)           35.6721         0.287638   
    133. A(C   1,Ni  3,C  24)          149.5377         0.260375   
    134. A(C   5,Ni  3,N  18)          143.5491         0.419009   
    135. A(C  19,Ni  3,N  22)          100.0156         0.445986   
    136. A(N   4,Ni  3,C  21)          121.0892         0.384558   
    137. A(C  12,Ni  3,N  22)           95.8034         0.357658   
    138. A(C   1,Ni  3,N  18)          113.2951         0.421992   
    139. A(C   1,Ni  3,N   4)           65.0474         0.430610   
    140. A(N   4,Ni  3,C   5)           34.8946         0.427550   
    141. A(N  18,Ni  3,N  22)           89.9066         0.639149   
    142. A(N   4,Ni  3,C  20)          151.6646         0.372553   
    143. A(C   1,Ni  3,C  12)           71.4808         0.251613   
    144. A(C  12,Ni  3,N  18)          154.2490         0.359159   
    145. A(C   5,Ni  3,C  19)          109.3420         0.303139   
    146. A(Ni  3,N   4,C   5)           99.1631         0.496176   
    147. A(Ni  3,N   4,C  12)          117.9369         0.526600   
    148. A(C   5,N   4,C  12)          115.0251         0.395033   
    149. A(C   1,C   5,Ni  3)           71.7827         0.317887   
    150. A(N   4,C   5,C   6)          110.0181         0.372605   
    151. A(C   1,C   5,C   6)          112.6209         0.363172   
    152. A(Ni  3,C   5,N   4)           45.9423         0.325762   
    153. A(Ni  3,C   5,C   6)           96.8841         0.324806   
    154. A(C   6,C   5,H  38)          108.2822         0.325616   
    155. A(C   1,C   5,N   4)          106.4269         0.364284   
    156. A(N   4,C   5,H  38)          111.1385         0.326576   
    157. A(Ni  3,C   5,H  38)          151.7950         0.286535   
    158. A(C   1,C   5,H  38)          108.3676         0.318674   
    159. A(C   5,C   6,C   7)          118.7495         0.401050   
    160. A(C   7,C   6,C  11)          118.6796         0.434670   
    161. A(C   5,C   6,C  11)          122.5706         0.401891   
    162. A(C   6,C   7,C   8)          120.8322         0.436745   
    163. A(C   8,C   7,H  39)          120.1662         0.357309   
    164. A(C   6,C   7,H  39)          119.0015         0.354992   
    165. A(C   7,C   8,C   9)          120.0577         0.438679   
    166. A(C   9,C   8,H  40)          119.9921         0.356295   
    167. A(C   7,C   8,H  40)          119.9495         0.357133   
    168. A(C   8,C   9,C  10)          119.5698         0.438334   
    169. A(C  10,C   9,H  41)          120.2326         0.356942   
    170. A(C   8,C   9,H  41)          120.1920         0.356369   
    171. A(C   9,C  10,C  11)          120.3668         0.438274   
    172. A(C  11,C  10,H  42)          119.6478         0.356240   
    173. A(C   9,C  10,H  42)          119.9840         0.356859   
    174. A(C   6,C  11,C  10)          120.4737         0.436533   
    175. A(C  10,C  11,H  43)          119.6520         0.356556   
    176. A(C   6,C  11,H  43)          119.8362         0.355838   
    177. A(C  13,C  12,C  17)          117.7520         0.428011   
    178. A(Ni  3,C  12,C  17)          157.0941         0.300652   
    179. A(Ni  3,C  12,C  13)           85.1420         0.300315   
    180. A(N   4,C  12,C  17)          121.1535         0.423183   
    181. A(N   4,C  12,C  13)          120.9574         0.422652   
    182. A(Ni  3,C  12,N   4)           35.9653         0.297306   
    183. A(C  12,C  13,C  14)          121.1958         0.434521   
    184. A(C  14,C  13,H  44)          120.7997         0.354831   
    185. A(C  12,C  13,H  44)          117.9266         0.349408   
    186. A(C  15,C  14,H  45)          119.9437         0.356221   
    187. A(C  13,C  14,H  45)          119.7723         0.357776   
    188. A(C  13,C  14,C  15)          120.2747         0.439677   
    189. A(C  14,C  15,C  16)          119.2700         0.437633   
    190. A(C  16,C  15,H  46)          120.3452         0.356570   
    191. A(C  14,C  15,H  46)          120.3779         0.356582   
    192. A(C  15,C  16,C  17)          120.8667         0.439484   
    193. A(C  17,C  16,H  47)          119.3520         0.357677   
    194. A(C  15,C  16,H  47)          119.7812         0.356246   
    195. A(C  12,C  17,C  16)          120.6238         0.434896   
    196. A(C  16,C  17,H  48)          119.9240         0.357774   
    197. A(C  12,C  17,H  48)          119.4500         0.352843   
    198. A(C  20,N  18,C  31)          111.1603         0.372864   
    199. A(C  19,N  18,C  31)          110.9210         0.372157   
    200. A(Ni  3,N  18,C  31)          120.2423         0.482074   
    201. A(Ni  3,N  18,C  19)           92.7125         0.487522   
    202. A(C  19,N  18,C  20)          109.9606         0.376799   
    203. A(Ni  3,N  18,C  20)          110.2722         0.488517   
    204. A(Ni  3,C  19,N  18)           50.3537         0.347597   
    205. A(N  18,C  19,H  50)          109.6143         0.329842   
    206. A(H  49,C  19,H  51)          108.1221         0.287930   
    207. A(H  50,C  19,H  51)          107.9719         0.289108   
    208. A(N  18,C  19,H  51)          110.9865         0.327528   
    209. A(Ni  3,C  19,H  51)          156.0680         0.303861   
    210. A(H  49,C  19,H  50)          108.2397         0.289859   
    211. A(Ni  3,C  19,H  50)           93.8880         0.305945   
    212. A(N  18,C  19,H  49)          111.7870         0.328423   
    213. A(Ni  3,C  19,H  49)           72.7014         0.304667   
    214. A(H  52,C  20,H  53)          107.8718         0.288768   
    215. A(C  21,C  20,H  53)          110.7490         0.324504   
    216. A(N  18,C  20,H  53)          111.7286         0.328351   
    217. A(Ni  3,C  20,H  53)          142.8857         0.254591   
    218. A(C  21,C  20,H  52)          110.1852         0.325934   
    219. A(N  18,C  20,H  52)          108.8325         0.329804   
    220. A(Ni  3,C  20,H  52)          105.2237         0.255596   
    221. A(N  18,C  20,C  21)          107.4658         0.372881   
    222. A(Ni  3,C  20,C  21)           71.9921         0.285398   
    223. A(Ni  3,C  20,N  18)           39.8158         0.288606   
    224. A(Ni  3,C  21,N  22)           42.0031         0.295130   
    225. A(Ni  3,C  21,H  55)          149.2844         0.261912   
    226. A(C  20,C  21,N  22)          109.1304         0.370251   
    227. A(H  54,C  21,H  55)          107.2503         0.289158   
    228. A(N  22,C  21,H  55)          110.9818         0.326559   
    229. A(C  20,C  21,H  55)          111.2443         0.324927   
    230. A(N  22,C  21,H  54)          108.3986         0.327610   
    231. A(C  20,C  21,H  54)          109.7755         0.325971   
    232. A(Ni  3,C  21,H  54)           97.5439         0.262677   
    233. A(Ni  3,C  21,C  20)           75.6051         0.293714   
    234. A(C  21,N  22,C  23)          107.0689         0.372414   
    235. A(Ni  3,N  22,C  23)          117.7005         0.482921   
    236. A(Ni  3,N  22,C  21)          106.4455         0.482618   
    237. A(C  23,N  22,C  24)          108.6387         0.368039   
    238. A(C  21,N  22,C  24)          110.4527         0.367824   
    239. A(Ni  3,N  22,C  24)          106.4620         0.476541   
    240. A(H  56,C  23,H  58)          108.9499         0.290166   
    241. A(H  57,C  23,H  58)          108.0449         0.291586   
    242. A(N  22,C  23,H  58)          109.8001         0.328445   
    243. A(H  56,C  23,H  57)          109.7989         0.290609   
    244. A(N  22,C  23,H  57)          109.4418         0.328971   
    245. A(N  22,C  23,H  56)          110.7577         0.327290   
    246. A(N  22,C  24,C  25)          115.5780         0.367903   
    247. A(Ni  3,C  24,C  25)          156.7048         0.292765   
    248. A(Ni  3,C  24,N  22)           41.7286         0.289562   
    249. A(H  59,C  24,H  60)          108.3002         0.289958   
    250. A(C  25,C  24,H  60)          108.6429         0.327701   
    251. A(N  22,C  24,H  60)          106.9276         0.323949   
    252. A(Ni  3,C  24,H  60)           87.3946         0.260653   
    253. A(C  25,C  24,H  59)          108.7436         0.327553   
    254. A(N  22,C  24,H  59)          108.4354         0.323804   
    255. A(Ni  3,C  24,H  59)           80.6882         0.260546   
    256. A(C  26,C  25,C  30)          118.4669         0.434684   
    257. A(C  24,C  25,C  30)          121.1292         0.401995   
    258. A(C  24,C  25,C  26)          120.3844         0.401950   
    259. A(C  25,C  26,C  27)          120.7615         0.436859   
    260. A(C  27,C  26,H  61)          119.7009         0.357081   
    261. A(C  25,C  26,H  61)          119.5322         0.355366   
    262. A(C  26,C  27,C  28)          120.1853         0.438720   
    263. A(C  28,C  27,H  62)          120.0335         0.356824   
    264. A(C  26,C  27,H  62)          119.7804         0.357115   
    265. A(C  27,C  28,C  29)          119.6295         0.438610   
    266. A(C  29,C  28,H  63)          120.1349         0.357077   
    267. A(C  27,C  28,H  63)          120.2307         0.356872   
    268. A(C  28,C  29,C  30)          120.0733         0.438744   
    269. A(C  30,C  29,H  64)          119.7881         0.356864   
    270. A(C  28,C  29,H  64)          120.1378         0.356967   
    271. A(C  25,C  30,C  29)          120.8598         0.436666   
    272. A(C  29,C  30,H  65)          119.1344         0.356537   
    273. A(C  25,C  30,H  65)          119.9976         0.355051   
    274. A(N  18,C  31,C  32)          114.0917         0.370909   
    275. A(H  66,C  31,H  67)          108.0799         0.289626   
    276. A(C  32,C  31,H  67)          110.0592         0.328139   
    277. A(N  18,C  31,H  67)          107.1025         0.325914   
    278. A(C  32,C  31,H  66)          109.7749         0.327729   
    279. A(N  18,C  31,H  66)          107.5235         0.325508   
    280. A(C  33,C  32,C  37)          118.6534         0.435092   
    281. A(C  31,C  32,C  37)          120.9648         0.402849   
    282. A(C  31,C  32,C  33)          120.3817         0.402790   
    283. A(C  32,C  33,C  34)          120.6874         0.437023   
    284. A(C  34,C  33,H  68)          119.6698         0.357024   
    285. A(C  32,C  33,H  68)          119.6370         0.355487   
    286. A(C  33,C  34,C  35)          120.1433         0.438723   
    287. A(C  35,C  34,H  69)          120.0549         0.356819   
    288. A(C  33,C  34,H  69)          119.8011         0.357054   
    289. A(C  34,C  35,C  36)          119.6755         0.438542   
    290. A(C  36,C  35,H  70)          120.1182         0.356947   
    291. A(C  34,C  35,H  70)          120.2027         0.356850   
    292. A(C  35,C  36,C  37)          120.0850         0.438740   
    293. A(C  37,C  36,H  71)          119.8115         0.356890   
    294. A(C  35,C  36,H  71)          120.1029         0.356836   
    295. A(C  32,C  37,C  36)          120.7438         0.436980   
    296. A(C  36,C  37,H  72)          119.3338         0.356630   
    297. A(C  32,C  37,H  72)          119.9155         0.355229   
    298. D(Ni  3,O   2,C   1,C   5)     17.4694         0.057374   
    299. D(Ni  3,O   2,C   1,O   0)   -162.5167         0.057374   
    300. D(C   5,Ni  3,O   2,C   1)    -10.7559         0.011155   
    301. D(N  18,Ni  3,C   1,O   2)    -42.2949         0.010000   
    302. D(C  21,Ni  3,O   2,C   1)    122.7412         0.011155   
    303. D(N  18,Ni  3,O   2,C   1)    141.8178         0.011155   
    304. D(N   4,Ni  3,O   2,C   1)    -37.5080         0.011155   
    305. D(C  12,Ni  3,C   1,O   0)    162.3842         0.010000   
    306. D(O   2,Ni  3,C   1,O   0)     51.8112         0.010000   
    307. D(C  12,Ni  3,O   2,C   1)    -63.3488         0.011155   
    308. D(N   4,Ni  3,C   1,O   2)    137.8588         0.010000   
    309. D(C  12,Ni  3,C   1,C   5)    -52.7138         0.010000   
    310. D(C  20,Ni  3,O   2,C   1)    145.1584         0.011155   
    311. D(C   5,Ni  3,C   1,O   0)   -144.9020         0.010000   
    312. D(N   4,Ni  3,C   1,O   0)   -170.3300         0.010000   
    313. D(C   5,Ni  3,C   1,O   2)    163.2868         0.010000   
    314. D(C  19,Ni  3,O   2,C   1)    106.1473         0.011155   
    315. D(O   2,Ni  3,C   1,C   5)   -163.2868         0.010000   
    316. D(C  12,Ni  3,C   1,O   2)    110.5730         0.010000   
    317. D(N  18,Ni  3,C   1,O   0)      9.5162         0.010000   
    318. D(N   4,Ni  3,C   1,C   5)    -25.4280         0.010000   
    319. D(N  18,Ni  3,C   1,C   5)    154.4182         0.010000   
    320. D(C  24,Ni  3,O   2,C   1)   -118.2154         0.011155   
    321. D(C   5,N   4,Ni  3,C  12)    124.7881         0.010000   
    322. D(C   5,N   4,Ni  3,C  20)   -139.8411         0.010000   
    323. D(C   5,N   4,Ni  3,N  22)   -135.2905         0.010000   
    324. D(C   5,N   4,Ni  3,C  19)    -26.7189         0.010000   
    325. D(C   5,N   4,Ni  3,C  21)   -123.3801         0.010000   
    326. D(C   5,N   4,Ni  3,C  24)   -166.7898         0.010000   
    327. D(C  12,N   4,Ni  3,C  20)     95.3709         0.010000   
    328. D(C   5,N   4,Ni  3,C   1)     25.9567         0.010000   
    329. D(C  12,N   4,Ni  3,O   2)    -79.7915         0.010000   
    330. D(C  12,N   4,Ni  3,C   1)    -98.8314         0.010000   
    331. D(C  12,N   4,Ni  3,C  19)   -151.5070         0.010000   
    332. D(C  12,N   4,Ni  3,C   5)   -124.7881         0.010000   
    333. D(C   5,N   4,Ni  3,O   2)     44.9965         0.010000   
    334. D(H  38,C   5,N   4,Ni  3)   -160.1582         0.016164   
    335. D(Ni  3,C   5,N   4,C  12)    126.8000         0.016164   
    336. D(C   6,C   5,N   4,Ni  3)     79.9201         0.016164   
    337. D(C   1,C   5,N   4,Ni  3)    -42.3694         0.016164   
    338. D(C   6,C   5,N   4,C  12)   -153.2800         0.016164   
    339. D(C   1,C   5,N   4,C  12)     84.4305         0.016164   
    340. D(N   4,C   5,Ni  3,N  18)   -178.9928         0.010000   
    341. D(N   4,C   5,Ni  3,O   2)   -128.1729         0.010000   
    342. D(N   4,C   5,Ni  3,C   1)   -137.1166         0.010000   
    343. D(C   1,C   5,Ni  3,C  20)    -98.9428         0.010000   
    344. D(C   1,C   5,Ni  3,N  22)   -171.7384         0.010000   
    345. D(C   1,C   5,Ni  3,C  21)   -140.1397         0.010000   
    346. D(C   1,C   5,Ni  3,C  12)    110.4573         0.010000   
    347. D(C   1,C   5,Ni  3,N  18)    -41.8762         0.010000   
    348. D(C   1,C   5,Ni  3,C  19)    -59.9563         0.010000   
    349. D(C   1,C   5,Ni  3,C  24)    152.5578         0.010000   
    350. D(N   4,C   5,C   1,Ni  3)     30.6540         0.010411   
    351. D(N   4,C   5,Ni  3,C  12)    -26.6592         0.010000   
    352. D(C   6,C   5,C   1,O   0)     77.5832         0.010411   
    353. D(C   6,C   5,C   1,O   2)   -102.4032         0.010411   
    354. D(C   1,C   5,Ni  3,N   4)    137.1166         0.010000   
    355. D(N   4,C   5,Ni  3,C  19)    162.9271         0.010000   
    356. D(N   4,C   5,C   1,O   2)     18.2258         0.010411   
    357. D(C   1,C   5,Ni  3,O   2)      8.9437         0.010000   
    358. D(Ni  3,C   5,C   1,O   0)    167.5582         0.010411   
    359. D(Ni  3,C   5,C   1,O   2)    -12.4282         0.010411   
    360. D(N   4,C   5,C   1,O   0)   -161.7878         0.010411   
    361. D(H  38,C   5,N   4,C  12)    -33.3582         0.016164   
    362. D(C  11,C   6,C   5,Ni  3)    -75.8863         0.012597   
    363. D(C   7,C   6,C   5,Ni  3)    103.9179         0.012597   
    364. D(C  11,C   6,C   5,C   1)     -2.7939         0.012597   
    365. D(C   7,C   6,C   5,H  38)    -63.1758         0.012597   
    366. D(C   7,C   6,C   5,N   4)     58.4640         0.012597   
    367. D(C   7,C   6,C   5,C   1)    177.0104         0.012597   
    368. D(H  39,C   7,C   6,C  11)   -178.6704         0.026483   
    369. D(H  39,C   7,C   6,C   5)      1.5177         0.026483   
    370. D(C   8,C   7,C   6,C  11)      1.3119         0.026483   
    371. D(C   8,C   7,C   6,C   5)   -178.5001         0.026483   
    372. D(H  40,C   8,C   7,C   6)   -179.8439         0.028733   
    373. D(C   9,C   8,C   7,C   6)     -0.1393         0.028733   
    374. D(H  40,C   8,C   7,H  39)      0.1382         0.028733   
    375. D(C   9,C   8,C   7,H  39)    179.8428         0.028733   
    376. D(H  41,C   9,C   8,H  40)     -0.3531         0.027898   
    377. D(H  41,C   9,C   8,C   7)    179.9425         0.027898   
    378. D(C  10,C   9,C   8,H  40)    178.7877         0.027898   
    379. D(C  10,C   9,C   8,C   7)     -0.9167         0.027898   
    380. D(H  42,C  10,C   9,C   8)   -178.7791         0.028467   
    381. D(H  42,C  10,C   9,H  41)      0.3613         0.028467   
    382. D(C  11,C  10,C   9,H  41)    179.9240         0.028467   
    383. D(C  11,C  10,C   9,C   8)      0.7836         0.028467   
    384. D(H  43,C  11,C  10,H  42)      2.2222         0.027853   
    385. D(H  43,C  11,C  10,C   9)   -177.3419         0.027853   
    386. D(C   6,C  11,C  10,H  42)    179.9740         0.027853   
    387. D(C   6,C  11,C  10,C   9)      0.4099         0.027853   
    388. D(H  43,C  11,C   6,C   7)    176.3045         0.027159   
    389. D(C  10,C  11,C   6,C   7)     -1.4432         0.027159   
    390. D(C  10,C  11,C   6,C   5)    178.3612         0.027159   
    391. D(H  43,C  11,C   6,C   5)     -3.8912         0.027159   
    392. D(C  17,C  12,N   4,C   5)     62.0011         0.029146   
    393. D(Ni  3,C  12,N   4,C   5)   -116.5188         0.029146   
    394. D(C  13,C  12,N   4,Ni  3)     -5.8307         0.029146   
    395. D(C  13,C  12,Ni  3,O   2)    -86.8859         0.010000   
    396. D(C  13,C  12,Ni  3,C   1)   -114.1359         0.010000   
    397. D(C  13,C  12,N   4,C   5)   -122.3494         0.029146   
    398. D(N   4,C  12,Ni  3,C  24)   -108.3312         0.010000   
    399. D(N   4,C  12,Ni  3,N  22)    -81.7794         0.010000   
    400. D(N   4,C  12,Ni  3,C  20)   -126.3141         0.010000   
    401. D(N   4,C  12,Ni  3,C  19)     64.5633         0.010000   
    402. D(C  13,C  12,Ni  3,N   4)    174.9841         0.010000   
    403. D(C  13,C  12,Ni  3,C   5)   -149.3200         0.010000   
    404. D(N   4,C  12,Ni  3,C   5)     35.6958         0.010000   
    405. D(N   4,C  12,Ni  3,O   2)     98.1299         0.010000   
    406. D(N   4,C  12,Ni  3,C   1)     70.8799         0.010000   
    407. D(N   4,C  12,Ni  3,N  18)    176.2781         0.010000   
    408. D(N   4,C  12,Ni  3,C  21)    -85.7666         0.010000   
    409. D(C  17,C  12,N   4,Ni  3)    178.5199         0.029146   
    410. D(H  44,C  13,C  12,N   4)      8.7050         0.026404   
    411. D(H  44,C  13,C  12,Ni  3)      5.2722         0.026404   
    412. D(C  14,C  13,C  12,C  17)      1.3124         0.026404   
    413. D(C  14,C  13,C  12,N   4)   -174.4808         0.026404   
    414. D(C  14,C  13,C  12,Ni  3)   -177.9136         0.026404   
    415. D(H  45,C  14,C  13,C  12)   -179.3262         0.029493   
    416. D(C  15,C  14,C  13,H  44)    176.2856         0.029493   
    417. D(C  15,C  14,C  13,C  12)     -0.4374         0.029493   
    418. D(H  45,C  14,C  13,H  44)     -2.6032         0.029493   
    419. D(H  46,C  15,C  14,H  45)     -0.8815         0.027922   
    420. D(H  46,C  15,C  14,C  13)   -179.7684         0.027922   
    421. D(C  16,C  15,C  14,C  13)     -0.7162         0.027922   
    422. D(C  16,C  15,C  14,H  45)    178.1707         0.027922   
    423. D(C  17,C  16,C  15,H  46)   -179.9804         0.027910   
    424. D(C  17,C  16,C  15,C  14)      0.9671         0.027910   
    425. D(H  47,C  16,C  15,H  46)     -0.1103         0.027910   
    426. D(H  47,C  16,C  15,C  14)   -179.1628         0.027910   
    427. D(H  48,C  17,C  16,H  47)     -0.4780         0.029352   
    428. D(C  12,C  17,C  16,H  47)   -179.9330         0.029352   
    429. D(C  12,C  17,C  16,C  15)     -0.0623         0.029352   
    430. D(H  48,C  17,C  12,N   4)     -4.7327         0.026799   
    431. D(H  48,C  17,C  12,Ni  3)     -2.4990         0.026799   
    432. D(C  16,C  17,C  12,C  13)     -1.0597         0.026799   
    433. D(H  48,C  17,C  16,C  15)    179.3927         0.029352   
    434. D(C  16,C  17,C  12,N   4)    174.7248         0.026799   
    435. D(C  16,C  17,C  12,Ni  3)    176.9585         0.026799   
    436. D(C  31,N  18,N   4,C  12)    -36.9443         0.010000   
    437. D(C  31,N  18,N   4,C   5)     87.3630         0.010000   
    438. D(C  20,N  18,N   4,C  12)     94.9499         0.010000   
    439. D(C  19,N  18,N   4,C  12)   -152.6737         0.010000   
    440. D(C  19,N  18,N   4,C   5)    -28.3664         0.010000   
    441. D(C  20,N  18,Ni  3,C  21)    -16.8497         0.010000   
    442. D(C  20,N  18,Ni  3,C  19)   -112.4466         0.010000   
    443. D(C  20,N  18,Ni  3,C  12)     97.7662         0.010000   
    444. D(C  20,N  18,Ni  3,C   5)   -141.6116         0.010000   
    445. D(C  20,N  18,Ni  3,O   2)    174.2297         0.010000   
    446. D(C  20,N  18,Ni  3,C   1)   -166.6871         0.010000   
    447. D(C  19,N  18,Ni  3,C  24)    138.4580         0.010000   
    448. D(C  19,N  18,Ni  3,N  22)    106.9538         0.010000   
    449. D(C  19,N  18,Ni  3,C  21)     95.5970         0.010000   
    450. D(C  19,N  18,Ni  3,C  20)    112.4466         0.010000   
    451. D(C  20,N  18,N   4,C   5)   -140.7428         0.010000   
    452. D(C  19,N  18,Ni  3,C  12)   -149.7871         0.010000   
    453. D(C  19,N  18,Ni  3,C   5)    -29.1649         0.010000   
    454. D(C  19,N  18,Ni  3,O   2)    -73.3237         0.010000   
    455. D(C  19,N  18,Ni  3,C   1)    -54.2404         0.010000   
    456. D(H  50,C  19,N  18,C  31)    -45.5551         0.017818   
    457. D(H  50,C  19,N  18,C  20)   -168.9219         0.017818   
    458. D(H  50,C  19,N  18,Ni  3)     78.3571         0.017818   
    459. D(H  49,C  19,N  18,C  31)   -165.5734         0.017818   
    460. D(H  49,C  19,N  18,C  20)     71.0599         0.017818   
    461. D(Ni  3,C  19,N  18,C  31)   -123.9122         0.017818   
    462. D(Ni  3,C  19,N  18,C  20)    112.7211         0.017818   
    463. D(H  49,C  19,Ni  3,C  12)    -82.4770         0.010000   
    464. D(H  49,C  19,Ni  3,C   5)    -58.1469         0.010000   
    465. D(H  49,C  19,Ni  3,N   4)    -42.3282         0.010000   
    466. D(H  49,C  19,Ni  3,O   2)   -116.2807         0.010000   
    467. D(H  49,C  19,Ni  3,C   1)    -88.4655         0.010000   
    468. D(N  18,C  19,Ni  3,C  24)    -50.2965         0.010000   
    469. D(N  18,C  19,Ni  3,N  22)    -76.2500         0.010000   
    470. D(N  18,C  19,Ni  3,C  21)    -67.0645         0.010000   
    471. D(H  49,C  19,N  18,Ni  3)    -41.6612         0.017818   
    472. D(N  18,C  19,Ni  3,C  20)    -34.4027         0.010000   
    473. D(N  18,C  19,Ni  3,C  12)    137.8001         0.010000   
    474. D(N  18,C  19,Ni  3,C   5)    162.1302         0.010000   
    475. D(N  18,C  19,Ni  3,N   4)    177.9489         0.010000   
    476. D(N  18,C  19,Ni  3,O   2)    103.9964         0.010000   
    477. D(N  18,C  19,Ni  3,C   1)    131.8116         0.010000   
    478. D(H  52,C  20,N  18,C  31)     44.5633         0.018220   
    479. D(H  52,C  20,N  18,C  19)    167.7900         0.018220   
    480. D(H  52,C  20,N  18,Ni  3)    -91.3843         0.018220   
    481. D(C  21,C  20,N  18,C  19)    -72.9020         0.018220   
    482. D(C  21,C  20,N  18,Ni  3)     27.9237         0.018220   
    483. D(Ni  3,C  20,N  18,C  31)    135.9477         0.018220   
    484. D(Ni  3,C  20,N  18,C  19)   -100.8257         0.018220   
    485. D(C  21,C  20,Ni  3,C  12)     75.2421         0.010000   
    486. D(C  21,C  20,Ni  3,C   5)    -62.3795         0.010000   
    487. D(C  21,C  20,Ni  3,N   4)     26.9259         0.010000   
    488. D(C  21,C  20,Ni  3,O   2)   -158.6940         0.010000   
    489. D(C  21,C  20,Ni  3,C   1)   -131.8709         0.010000   
    490. D(N  18,C  20,Ni  3,C  24)   -151.8184         0.010000   
    491. D(N  18,C  20,Ni  3,N  22)    173.6635         0.010000   
    492. D(N  18,C  20,Ni  3,C  21)    151.9842         0.010000   
    493. D(N  18,C  20,Ni  3,C  19)     42.9082         0.010000   
    494. D(N  18,C  20,Ni  3,C  12)   -132.7737         0.010000   
    495. D(C  21,C  20,N  18,C  31)    163.8714         0.018220   
    496. D(N  18,C  20,Ni  3,C   5)     89.6047         0.010000   
    497. D(N  18,C  20,Ni  3,N   4)    178.9101         0.010000   
    498. D(N  18,C  20,Ni  3,O   2)     -6.7098         0.010000   
    499. D(N  18,C  20,Ni  3,C   1)     20.1133         0.010000   
    500. D(H  54,C  21,C  20,Ni  3)     92.9667         0.013440   
    501. D(N  22,C  21,C  20,H  52)     74.3588         0.013440   
    502. D(N  22,C  21,C  20,N  18)    -44.0802         0.013440   
    503. D(N  22,C  21,C  20,Ni  3)    -25.7009         0.013440   
    504. D(Ni  3,C  21,C  20,H  52)    100.0597         0.013440   
    505. D(Ni  3,C  21,C  20,N  18)    -18.3792         0.013440   
    506. D(N  22,C  21,Ni  3,C  12)      7.5969         0.010000   
    507. D(N  22,C  21,Ni  3,C   5)    -64.7233         0.010000   
    508. D(N  22,C  21,Ni  3,N   4)    -23.2195         0.010000   
    509. D(N  22,C  21,Ni  3,O   2)   -179.9998         0.010000   
    510. D(N  22,C  21,Ni  3,C   1)   -118.3407         0.010000   
    511. D(C  20,C  21,Ni  3,C  24)   -106.7914         0.010000   
    512. D(C  20,C  21,Ni  3,N  22)   -142.2450         0.010000   
    513. D(C  20,C  21,Ni  3,C  19)     55.2377         0.010000   
    514. D(C  20,C  21,Ni  3,N  18)     15.6488         0.010000   
    515. D(Ni  3,C  21,C  20,H  53)   -140.6704         0.013440   
    516. D(C  20,C  21,Ni  3,C  12)   -134.6481         0.010000   
    517. D(C  20,C  21,Ni  3,C   5)    153.0318         0.010000   
    518. D(C  20,C  21,Ni  3,N   4)   -165.4644         0.010000   
    519. D(N  22,C  21,C  20,H  53)   -166.3713         0.013440   
    520. D(C  20,C  21,Ni  3,O   2)     37.7552         0.010000   
    521. D(C  20,C  21,Ni  3,C   1)     99.4144         0.010000   
    522. D(C  24,N  22,C  21,Ni  3)   -115.1779         0.016768   
    523. D(C  23,N  22,C  21,H  55)    -71.4738         0.016768   
    524. D(C  23,N  22,C  21,C  20)    165.5842         0.016768   
    525. D(C  23,N  22,C  21,Ni  3)    126.7014         0.016768   
    526. D(Ni  3,N  22,C  21,H  55)    161.8248         0.016768   
    527. D(Ni  3,N  22,C  21,H  54)    -80.6409         0.016768   
    528. D(Ni  3,N  22,C  21,C  20)     38.8829         0.016768   
    529. D(C  23,N  22,Ni  3,C  19)   -103.4066         0.010000   
    530. D(C  23,N  22,Ni  3,N  18)   -139.1159         0.010000   
    531. D(C  23,N  22,Ni  3,C  12)     66.0385         0.010000   
    532. D(C  23,N  22,Ni  3,C   5)     13.7516         0.010000   
    533. D(C  23,N  22,Ni  3,N   4)     40.2176         0.010000   
    534. D(C  23,N  22,Ni  3,C   1)      3.9634         0.010000   
    535. D(C  21,N  22,Ni  3,C  24)   -117.8486         0.010000   
    536. D(C  21,N  22,Ni  3,C  20)    -22.2290         0.010000   
    537. D(C  21,N  22,Ni  3,C  19)     16.6353         0.010000   
    538. D(C  21,N  22,Ni  3,N  18)    -19.0740         0.010000   
    539. D(C  21,N  22,Ni  3,C  12)   -173.9196         0.010000   
    540. D(C  21,N  22,Ni  3,C   5)    133.7935         0.010000   
    541. D(C  21,N  22,Ni  3,N   4)    160.2595         0.010000   
    542. D(C  21,N  22,Ni  3,C   1)    124.0053         0.010000   
    543. D(C  23,N  22,C  21,H  54)     46.0604         0.016768   
    544. D(C  24,N  22,O   2,C   1)   -119.1861         0.010000   
    545. D(C  23,N  22,O   2,C   1)      2.6271         0.010000   
    546. D(C  21,N  22,O   2,C   1)    122.8572         0.010000   
    547. D(H  57,C  23,N  22,C  24)     56.4400         0.015884   
    548. D(H  57,C  23,N  22,C  21)    175.7366         0.015884   
    549. D(H  57,C  23,N  22,Ni  3)    -64.5482         0.015884   
    550. D(H  56,C  23,N  22,C  24)    -64.7530         0.015884   
    551. D(H  56,C  23,N  22,C  21)     54.5437         0.015884   
    552. D(H  56,C  23,N  22,Ni  3)    174.2588         0.015884   
    553. D(H  58,C  23,N  22,Ni  3)     53.8901         0.015884   
    554. D(H  59,C  24,N  22,C  23)   -178.6266         0.014624   
    555. D(H  59,C  24,N  22,C  21)     64.2184         0.014624   
    556. D(H  59,C  24,N  22,Ni  3)    -50.9492         0.014624   
    557. D(C  25,C  24,N  22,C  23)     59.0247         0.014624   
    558. D(C  25,C  24,N  22,C  21)    -58.1303         0.014624   
    559. D(C  25,C  24,N  22,Ni  3)   -173.2979         0.014624   
    560. D(Ni  3,C  24,N  22,C  23)   -127.6774         0.014624   
    561. D(Ni  3,C  24,N  22,C  21)    115.1676         0.014624   
    562. D(C  25,C  24,Ni  3,C  12)    137.9037         0.010000   
    563. D(C  25,C  24,Ni  3,C   5)    104.4161         0.010000   
    564. D(C  25,C  24,Ni  3,N   4)    113.1882         0.010000   
    565. D(C  25,C  24,Ni  3,O   2)   -165.9710         0.010000   
    566. D(C  25,C  24,Ni  3,C   1)    136.4282         0.010000   
    567. D(N  22,C  24,Ni  3,C  21)    -35.1576         0.010000   
    568. D(N  22,C  24,Ni  3,C  20)    -68.8131         0.010000   
    569. D(N  22,C  24,Ni  3,C  19)    -54.8486         0.010000   
    570. D(N  22,C  24,Ni  3,N  18)    -82.4781         0.010000   
    571. D(N  22,C  24,Ni  3,C  12)    122.4659         0.010000   
    572. D(N  22,C  24,Ni  3,C   5)     88.9783         0.010000   
    573. D(N  22,C  24,Ni  3,N   4)     97.7505         0.010000   
    574. D(N  22,C  24,Ni  3,O   2)    178.5912         0.010000   
    575. D(N  22,C  24,Ni  3,C   1)    120.9904         0.010000   
    576. D(C  30,C  25,C  24,N  22)     91.9331         0.012768   
    577. D(C  30,C  25,C  24,Ni  3)     80.6049         0.012768   
    578. D(C  26,C  25,C  24,H  60)     30.4463         0.012768   
    579. D(C  26,C  25,C  24,H  59)    148.1191         0.012768   
    580. D(C  26,C  25,C  24,N  22)    -89.6963         0.012768   
    581. D(C  26,C  25,C  24,Ni  3)   -101.0245         0.012768   
    582. D(H  61,C  26,C  25,C  30)    177.6038         0.026805   
    583. D(H  61,C  26,C  25,C  24)     -0.8096         0.026805   
    584. D(C  27,C  26,C  25,C  30)     -1.5490         0.026805   
    585. D(C  27,C  26,C  25,C  24)   -179.9623         0.026805   
    586. D(H  62,C  27,C  26,H  61)      0.8827         0.028473   
    587. D(H  62,C  27,C  26,C  25)   -179.9660         0.028473   
    588. D(C  28,C  27,C  26,H  61)   -178.7755         0.028473   
    589. D(C  28,C  27,C  26,C  25)      0.3758         0.028473   
    590. D(H  63,C  28,C  27,H  62)      0.3634         0.028184   
    591. D(H  63,C  28,C  27,C  26)   -179.9793         0.028184   
    592. D(C  29,C  28,C  27,H  62)   -178.8297         0.028184   
    593. D(C  29,C  28,C  27,C  26)      0.8277         0.028184   
    594. D(H  64,C  29,C  28,H  63)     -0.3400         0.028389   
    595. D(H  64,C  29,C  28,C  27)    178.8538         0.028389   
    596. D(C  30,C  29,C  28,H  63)    179.9802         0.028389   
    597. D(C  30,C  29,C  28,C  27)     -0.8260         0.028389   
    598. D(H  65,C  30,C  29,H  64)     -1.1021         0.028286   
    599. D(H  65,C  30,C  29,C  28)    178.5787         0.028286   
    600. D(C  25,C  30,C  29,H  64)    179.9406         0.028286   
    601. D(C  25,C  30,C  29,C  28)     -0.3785         0.028286   
    602. D(H  65,C  30,C  25,C  26)   -177.3970         0.026842   
    603. D(H  65,C  30,C  25,C  24)      1.0041         0.026842   
    604. D(C  29,C  30,C  25,C  26)      1.5514         0.026842   
    605. D(C  29,C  30,C  25,C  24)    179.9524         0.026842   
    606. D(H  67,C  31,N  18,Ni  3)    -44.0262         0.014842   
    607. D(H  66,C  31,N  18,C  20)    -59.0467         0.014842   
    608. D(H  66,C  31,N  18,C  19)    178.2789         0.014842   
    609. D(H  66,C  31,N  18,Ni  3)     71.9281         0.014842   
    610. D(C  32,C  31,N  18,C  20)     62.9473         0.014842   
    611. D(C  32,C  31,N  18,C  19)    -59.7271         0.014842   
    612. D(C  32,C  31,N  18,Ni  3)   -166.0779         0.014842   
    613. D(C  37,C  32,C  31,H  66)     31.8093         0.012158   
    614. D(C  37,C  32,C  31,N  18)    -88.9383         0.012158   
    615. D(C  33,C  32,C  31,H  67)    -29.4975         0.012158   
    616. D(C  33,C  32,C  31,H  66)   -148.3376         0.012158   
    617. D(C  33,C  32,C  31,N  18)     90.9148         0.012158   
    618. D(H  68,C  33,C  32,C  37)   -178.0506         0.026949   
    619. D(H  68,C  33,C  32,C  31)      2.0930         0.026949   
    620. D(C  34,C  33,C  32,C  37)      1.0648         0.026949   
    621. D(C  34,C  33,C  32,C  31)   -178.7917         0.026949   
    622. D(H  69,C  34,C  33,H  68)     -0.8200         0.028447   
    623. D(H  69,C  34,C  33,C  32)   -179.9351         0.028447   
    624. D(C  35,C  34,C  33,H  68)    178.8665         0.028447   
    625. D(C  35,C  34,C  33,C  32)     -0.2486         0.028447   
    626. D(H  70,C  35,C  34,H  69)     -0.2641         0.028212   
    627. D(H  70,C  35,C  34,C  33)   -179.9499         0.028212   
    628. D(C  36,C  35,C  34,H  69)    179.0494         0.028212   
    629. D(C  36,C  35,C  34,C  33)     -0.6364         0.028212   
    630. D(H  71,C  36,C  35,H  70)      0.2789         0.028308   
    631. D(H  71,C  36,C  35,C  34)   -179.0352         0.028308   
    632. D(C  37,C  36,C  35,H  70)   -179.9998         0.028308   
    633. D(C  37,C  36,C  35,C  34)      0.6861         0.028308   
    634. D(H  72,C  37,C  36,H  71)      0.8283         0.028363   
    635. D(H  72,C  37,C  36,C  35)   -178.8939         0.028363   
    636. D(C  32,C  37,C  36,H  71)    179.8700         0.028363   
    637. D(C  32,C  37,C  36,C  35)      0.1478         0.028363   
    638. D(H  72,C  37,C  32,C  33)    178.0213         0.026996   
    639. D(H  72,C  37,C  32,C  31)     -2.1231         0.026996   
    640. D(C  36,C  37,C  32,C  33)     -1.0149         0.026996   
    641. D(C  36,C  37,C  32,C  31)    178.8407         0.026996   
    -----------------------------------------------------------------

Number of atoms                         .... 73
Number of degrees of freedom            .... 641


         *************************************************************
         *                GEOMETRY OPTIMIZATION CYCLE   1            *
         *************************************************************
---------------------------------
CARTESIAN COORDINATES (ANGSTROEM)
---------------------------------
  O      6.826316   -6.465667   -4.723923
  C      5.793251   -5.828408   -4.809560
  O      5.540504   -4.774691   -4.115856
  Ni     3.753972   -4.483233   -4.183170
  N      3.807788   -5.042168   -5.939303
  C      4.656100   -6.229325   -5.780842
  C      3.832890   -7.388910   -5.265764
  C      2.735409   -7.814168   -6.010210
  C      1.935308   -8.849450   -5.564571
  C      2.221630   -9.481018   -4.364522
  C      3.322247   -9.080881   -3.628060
  C      4.126273   -8.044490   -4.076372
  C      4.237592   -4.140043   -6.892529
  C      4.505302   -2.804374   -6.553867
  C      4.825557   -1.873210   -7.519146
  C      4.898156   -2.245372   -8.852152
  C      4.660169   -3.565387   -9.201082
  C      4.334150   -4.502944   -8.243079
  N      3.744693   -3.943356   -2.388174
  C      3.927233   -5.311383   -1.903482
  C      2.421100   -3.454501   -2.013872
  C      1.407035   -4.163802   -2.895099
  N      1.900080   -4.179504   -4.280902
  C      1.085447   -5.156541   -5.017679
  C      1.724208   -2.841221   -4.911185
  C      0.307383   -2.318604   -4.947602
  C     -0.520522   -2.604619   -6.028321
  C     -1.819051   -2.129386   -6.070103
  C     -2.309819   -1.352604   -5.034182
  C     -1.488712   -1.040022   -3.965120
  C     -0.189746   -1.516702   -3.925587
  C      4.808123   -3.053802   -1.872163
  C      4.865230   -2.971194   -0.367472
  C      5.669751   -3.845486    0.354776
  C      5.707932   -3.791651    1.736710
  C      4.945044   -2.858077    2.417490
  C      4.154444   -1.970584    1.708178
  C      4.116911   -2.026819    0.325947
  H      5.107623   -6.525555   -6.740195
  H      2.515403   -7.322495   -6.946273
  H      1.088590   -9.169617   -6.155017
  H      1.597131  -10.289879   -4.013669
  H      3.563102   -9.581883   -2.701160
  H      5.006369   -7.770136   -3.514900
  H      4.504494   -2.534456   -5.493212
  H      5.038200   -0.852937   -7.231321
  H      5.152396   -1.518532   -9.608839
  H      4.727935   -3.867580  -10.236816
  H      4.142063   -5.525954   -8.533376
  H      3.314820   -6.027097   -2.464708
  H      4.972251   -5.600383   -2.009102
  H      3.658510   -5.391658   -0.838819
  H      2.381578   -2.376350   -2.186271
  H      2.206379   -3.634343   -0.950291
  H      1.285204   -5.196596   -2.560768
  H      0.421928   -3.683463   -2.833816
  H      0.019532   -4.927018   -4.917769
  H      1.367653   -5.144824   -6.066782
  H      1.269551   -6.157502   -4.629960
  H      2.350099   -2.122312   -4.376315
  H      2.093239   -2.921408   -5.936082
  H     -0.139464   -3.193088   -6.849637
  H     -2.448055   -2.361455   -6.916408
  H     -3.323071   -0.981667   -5.065872
  H     -1.857172   -0.419441   -3.161714
  H      0.446087   -1.244040   -3.094389
  H      4.636571   -2.057323   -2.291534
  H      5.757433   -3.427451   -2.263262
  H      6.281862   -4.564511   -0.169326
  H      6.338672   -4.476864    2.283262
  H      4.974727   -2.814683    3.495916
  H      3.568515   -1.229255    2.231592
  H      3.509069   -1.316006   -0.216861

----------------------------
CARTESIAN COORDINATES (A.U.)
----------------------------
  NO LB      ZA    FRAG     MASS         X           Y           Z
   0 O     8.0000    0    15.999   12.899868  -12.218340   -8.926921
   1 C     6.0000    0    12.011   10.947658  -11.014095   -9.088751
   2 O     8.0000    0    15.999   10.470035   -9.022858   -7.777841
   3 Ni   28.0000    0    58.700    7.093979   -8.472083   -7.905046
   4 N     7.0000    0    14.007    7.195676   -9.528317  -11.223656
   5 C     6.0000    0    12.011    8.798754  -11.771718  -10.924208
   6 C     6.0000    0    12.011    7.243112  -13.963016   -9.950852
   7 C     6.0000    0    12.011    5.169174  -14.766637  -11.357651
   8 C     6.0000    0    12.011    3.657202  -16.723037  -10.515515
   9 C     6.0000    0    12.011    4.198272  -17.916527   -8.247751
  10 C     6.0000    0    12.011    6.278137  -17.160378   -6.856040
  11 C     6.0000    0    12.011    7.797526  -15.201883   -7.703227
  12 C     6.0000    0    12.011    8.007888   -7.823547  -13.024992
  13 C     6.0000    0    12.011    8.513787   -5.299499  -12.385014
  14 C     6.0000    0    12.011    9.118981   -3.539854  -14.209127
  15 C     6.0000    0    12.011    9.256173   -4.243138  -16.728143
  16 C     6.0000    0    12.011    8.806443   -6.737605  -17.387525
  17 C     6.0000    0    12.011    8.190357   -8.509331  -15.577162
  18 N     7.0000    0    14.007    7.076444   -7.451863   -4.512995
  19 C     6.0000    0    12.011    7.421395  -10.037059   -3.597060
  20 C     6.0000    0    12.011    4.575216   -6.528061   -3.805667
  21 C     6.0000    0    12.011    2.658911   -7.868445   -5.470944
  22 N     7.0000    0    14.007    3.590631   -7.898118   -8.089732
  23 C     6.0000    0    12.011    2.051198   -9.744450   -9.482039
  24 C     6.0000    0    12.011    3.258281   -5.369130   -9.280795
  25 C     6.0000    0    12.011    0.580870   -4.381527   -9.349613
  26 C     6.0000    0    12.011   -0.983644   -4.922017  -11.391876
  27 C     6.0000    0    12.011   -3.437508   -4.023956  -11.470832
  28 C     6.0000    0    12.011   -4.364925   -2.556051   -9.513225
  29 C     6.0000    0    12.011   -2.813258   -1.965357   -7.492991
  30 C     6.0000    0    12.011   -0.358568   -2.866151   -7.418284
  31 C     6.0000    0    12.011    9.086036   -5.770849   -3.537875
  32 C     6.0000    0    12.011    9.193952   -5.614743   -0.694421
  33 C     6.0000    0    12.011   10.714277   -7.266915    0.670429
  34 C     6.0000    0    12.011   10.786428   -7.165182    3.281906
  35 C     6.0000    0    12.011    9.344779   -5.400983    4.568394
  36 C     6.0000    0    12.011    7.850761   -3.723864    3.227989
  37 C     6.0000    0    12.011    7.779834   -3.830133    0.615951
  38 H     1.0000    0     1.008    9.652009  -12.331512  -12.737123
  39 H     1.0000    0     1.008    4.753423  -13.837510  -13.126554
  40 H     1.0000    0     1.008    2.057137  -17.328065  -11.631296
  41 H     1.0000    0     1.008    3.018140  -19.445053   -7.584735
  42 H     1.0000    0     1.008    6.733287  -18.107135   -5.104453
  43 H     1.0000    0     1.008    9.460666  -14.683429   -6.642198
  44 H     1.0000    0     1.008    8.512260   -4.789428  -10.380666
  45 H     1.0000    0     1.008    9.520818   -1.611817  -13.665216
  46 H     1.0000    0     1.008    9.736617   -2.869610  -18.158074
  47 H     1.0000    0     1.008    8.934502   -7.308667  -19.344779
  48 H     1.0000    0     1.008    7.827365  -10.442540  -16.125744
  49 H     1.0000    0     1.008    6.264102  -11.389563   -4.657623
  50 H     1.0000    0     1.008    9.396193  -10.583190   -3.796653
  51 H     1.0000    0     1.008    6.913582  -10.188757   -1.585138
  52 H     1.0000    0     1.008    4.500530   -4.490651   -4.131453
  53 H     1.0000    0     1.008    4.169452   -6.867913   -1.795790
  54 H     1.0000    0     1.008    2.428684   -9.820143   -4.839150
  55 H     1.0000    0     1.008    0.797328   -6.960736   -5.355136
  56 H     1.0000    0     1.008    0.036910   -9.310715   -9.293237
  57 H     1.0000    0     1.008    2.584490   -9.722308  -11.464556
  58 H     1.0000    0     1.008    2.399104  -11.635992   -8.749356
  59 H     1.0000    0     1.008    4.441043   -4.010588   -8.270037
  60 H     1.0000    0     1.008    3.955648   -5.520661  -11.217569
  61 H     1.0000    0     1.008   -0.263549   -6.034062  -12.943938
  62 H     1.0000    0     1.008   -4.626154   -4.462503  -13.070117
  63 H     1.0000    0     1.008   -6.279694   -1.855082   -9.573111
  64 H     1.0000    0     1.008   -3.509546   -0.792629   -5.974774
  65 H     1.0000    0     1.008    0.842982   -2.350895   -5.847548
  66 H     1.0000    0     1.008    8.761849   -3.887777   -4.330372
  67 H     1.0000    0     1.008   10.879972   -6.476944   -4.276945
  68 H     1.0000    0     1.008   11.870999   -8.625676   -0.319980
  69 H     1.0000    0     1.008   11.978354   -8.460047    4.314740
  70 H     1.0000    0     1.008    9.400872   -5.318980    6.606324
  71 H     1.0000    0     1.008    6.743516   -2.322955    4.217098
  72 H     1.0000    0     1.008    6.631179   -2.486891   -0.409808

--------------------------------
INTERNAL COORDINATES (ANGSTROEM)
--------------------------------
 O      0   0   0     0.000000000000     0.00000000     0.00000000
 C      1   0   0     1.216822100011     0.00000000     0.00000000
 O      2   1   0     1.286633514919   123.89911662     0.00000000
 Ni     3   2   1     1.811401536762   107.78715110   197.48331974
 N      4   3   2     1.843721131237    87.58308966   322.49198286
 C      5   4   3     1.467680101560    99.16311763    44.99654186
 C      6   5   4     1.512487164378   110.01806911    79.92006516
 C      7   6   5     1.392662471255   118.74954312    58.46403122
 C      8   7   6     1.382231727333   120.83223136   181.49992043
 C      9   8   7     1.385992795331   120.05774056   359.86072301
 C     10   9   8     1.383417390704   119.56977048   359.08328170
 C     11  10   9     1.386199034375   120.36680291     0.78356133
 C      5   4   3     1.381014410177   117.93685706   280.20845241
 C     13   5   4     1.403699494872   120.95744013   354.16931403
 C     14  13   5     1.378910152172   121.19580086   185.51924086
 C     15  14  13     1.385886057755   120.27467140   359.56264584
 C     16  15  14     1.385939954433   119.27003551   359.28378554
 C     17  16  15     1.379518490133   120.86671504     0.96708722
 N      4   3   2     1.874450296750    90.89608453   141.81777973
 C     19   4   3     1.462786744263    92.71250845   286.67631768
 C     19   4   3     1.459787528333   110.27218561   174.22967712
 C     21  19   4     1.519209254301   107.46578639    27.92369334
 N     22  21  19     1.470982623840   109.13041816   315.91984674
 C     23  22  21     1.470057336224   107.06887737   165.58424903
 C     23  22  21     1.489694266808   110.45274997   283.70495819
 C     25  23  22     1.510578633241   115.57796921   301.86971075
 C     26  25  23     1.391109207148   120.38443522   270.30365708
 C     27  26  25     1.383390654752   120.76152984   180.03765167
 C     28  27  26     1.384693404183   120.18529930     0.37580210
 C     29  28  27     1.383769407097   119.62953161     0.82771899
 C     30  29  28     1.384232404492   120.07333736   359.17403378
 C     19   4   3     1.479343447593   120.24227210    42.87073862
 C     32  19   4     1.508038559386   114.09165580   193.92211408
 C     33  32  19     1.390425371679   120.38166194    90.91475920
 C     34  33  32     1.383509152966   120.68735073   181.20833972
 C     35  34  33     1.384564885594   120.14326554   359.75143437
 C     36  35  34     1.384129942741   119.67551221   359.36364825
 C     37  36  35     1.383883535083   120.08504282     0.68614578
 H      6   5   4     1.100901181323   111.13845252   199.84180876
 H      8   7   6     1.079980980820   119.00154486     1.51766468
 H      9   8   7     1.080770446639   119.94951154   180.15613771
 H     10   9   8     1.080441088598   120.19201449   179.94248491
 H     11  10   9     1.080813464493   119.98399375   181.22088461
 H     12  11  10     1.079393298717   119.65202412   182.65806292
 H     14  13   5     1.094461241257   117.92659971     8.70495896
 H     15  14  13     1.081211020385   119.77232979   180.67384829
 H     16  15  14     1.079587689430   120.37794778   180.23162582
 H     17  16  15     1.081044753357   119.78117443   180.83724373
 H     18  17  16     1.080610579200   119.92403419   179.39268495
 H     20  19   4     1.096481114950   111.78695350   318.33883802
 H     20  19   4     1.089375603143   109.61427612    78.35708797
 H     20  19   4     1.100982938071   110.98653205   197.53541420
 H     21  19   4     1.092562576005   108.83251497   268.61566234
 H     21  19   4     1.099842168843   111.72863090   149.60522523
 H     22  21  19     1.092375144608   109.77554733    74.58746199
 H     22  21  19     1.097687096790   111.24431369   193.13483731
 H     24  23  22     1.094914427183   110.75774416    54.54366467
 H     24  23  22     1.086459672116   109.44179927   175.73660899
 H     24  23  22     1.089102028874   109.80009566   294.17494181
 H     25  23  22     1.093003024269   108.43542057    64.21838392
 H     25  23  22     1.092258071400   106.92758911   180.79686987
 H     27  26  25     1.079843014137   119.53218612   359.19040556
 H     28  27  26     1.079691717946   119.78035201   180.03404518
 H     29  28  27     1.079480490594   120.23068160   180.02073325
 H     30  29  28     1.079974420992   120.13779524   178.85378702
 H     31  30  29     1.081442687033   119.13435537   178.57874991
 H     32  19   4     1.094656348717   107.52350440    71.92809620
 H     32  19   4     1.092593922325   107.10254565   315.97376416
 H     34  33  32     1.079981357872   119.63698630     2.09299785
 H     35  34  33     1.079846698228   119.80108603   180.06490508
 H     36  35  34     1.079706792236   120.20270119   180.05013245
 H     37  36  35     1.080205394672   120.10287245   180.96483312
 H     38  37  36     1.081372989674   119.33379229   181.10613631

---------------------------
INTERNAL COORDINATES (A.U.)
---------------------------
 O      0   0   0     0.000000000000     0.00000000     0.00000000
 C      1   0   0     2.299460522724     0.00000000     0.00000000
 O      2   1   0     2.431384977922   123.89911662     0.00000000
 Ni     3   2   1     3.423052823044   107.78715110   197.48331974
 N      4   3   2     3.484128005361    87.58308966   322.49198286
 C      5   4   3     2.773513444153    99.16311763    44.99654186
 C      6   5   4     2.858186521746   110.01806911    79.92006516
 C      7   6   5     2.631750667661   118.74954312    58.46403122
 C      8   7   6     2.612039418276   120.83223136   181.49992043
 C      9   8   7     2.619146806763   120.05774056   359.86072301
 C     10   9   8     2.614279997334   119.56977048   359.08328170
 C     11  10   9     2.619536542074   120.36680291     0.78356133
 C      5   4   3     2.609739022234   117.93685706   280.20845241
 C     13   5   4     2.652607619632   120.95744013   354.16931403
 C     14  13   5     2.605762550888   121.19580086   185.51924086
 C     15  14  13     2.618945101978   120.27467140   359.56264584
 C     16  15  14     2.619046951938   119.27003551   359.28378554
 C     17  16  15     2.606912143032   120.86671504     0.96708722
 N      4   3   2     3.542197712505    90.89608453   141.81777973
 C     19   4   3     2.764266338988    92.71250845   286.67631768
 C     19   4   3     2.758598642264   110.27218561   174.22967712
 C     21  19   4     2.870889430748   107.46578639    27.92369334
 N     22  21  19     2.779754306814   109.13041816   315.91984674
 C     23  22  21     2.778005766626   107.06887737   165.58424903
 C     23  22  21     2.815114187541   110.45274997   283.70495819
 C     25  23  22     2.854579920578   115.57796921   301.86971075
 C     26  25  23     2.628815423885   120.38443522   270.30365708
 C     27  26  25     2.614229473706   120.76152984   180.03765167
 C     28  27  26     2.616691313354   120.18529930     0.37580210
 C     29  28  27     2.614945211912   119.62953161     0.82771899
 C     30  29  28     2.615820150189   120.07333736   359.17403378
 C     19   4   3     2.795553973962   120.24227210    42.87073862
[...]
      dx2y2   :     0.006117
      dxy     :     0.010046

 34 C s       :     2.908810  s :     2.908810
      pz      :     1.092699  p :     3.167470
      px      :     1.020758
      py      :     1.054014
      dz2     :     0.021920  d :     0.081262
      dxz     :     0.017036
      dyz     :     0.023172
      dx2y2   :     0.007802
      dxy     :     0.011333

 35 C s       :     2.909502  s :     2.909502
      pz      :     1.097222  p :     3.169304
      px      :     1.018170
      py      :     1.053913
      dz2     :     0.021662  d :     0.081101
      dxz     :     0.012614
      dyz     :     0.019816
      dx2y2   :     0.012565
      dxy     :     0.014443

 36 C s       :     2.908690  s :     2.908690
      pz      :     1.090848  p :     3.171509
      px      :     1.021271
      py      :     1.059391
      dz2     :     0.024877  d :     0.081306
      dxz     :     0.017767
      dyz     :     0.022269
      dx2y2   :     0.006307
      dxy     :     0.010087

 37 C s       :     2.903345  s :     2.903345
      pz      :     1.096009  p :     3.174947
      px      :     1.024644
      py      :     1.054294
      dz2     :     0.021532  d :     0.081729
      dxz     :     0.016820
      dyz     :     0.024571
      dx2y2   :     0.007705
      dxy     :     0.011102

 38 H s       :     0.751922  s :     0.751922
      pz      :     0.023761  p :     0.042302
      px      :     0.011256
      py      :     0.007284

 39 H s       :     0.780605  s :     0.780605
      pz      :     0.024365  p :     0.044038
      px      :     0.007475
      py      :     0.012199

 40 H s       :     0.788213  s :     0.788213
      pz      :     0.016955  p :     0.043929
      px      :     0.017408
      py      :     0.009567

 41 H s       :     0.788893  s :     0.788893
      pz      :     0.008215  p :     0.044055
      px      :     0.017197
      py      :     0.018642

 42 H s       :     0.788773  s :     0.788773
      pz      :     0.024322  p :     0.043965
      px      :     0.007659
      py      :     0.011984

 43 H s       :     0.768448  s :     0.768448
      pz      :     0.016603  p :     0.045637
      px      :     0.019466
      py      :     0.009568

 44 H s       :     0.788598  s :     0.788598
      pz      :     0.028415  p :     0.046658
      px      :     0.010343
      py      :     0.007899

 45 H s       :     0.791822  s :     0.791822
      pz      :     0.009295  p :     0.043512
      px      :     0.009377
      py      :     0.024840

 46 H s       :     0.790805  s :     0.790805
      pz      :     0.015623  p :     0.044566
      px      :     0.011308
      py      :     0.017635

 47 H s       :     0.790583  s :     0.790583
      pz      :     0.026641  p :     0.043525
      px      :     0.008863
      py      :     0.008021

 48 H s       :     0.786527  s :     0.786527
      pz      :     0.009055  p :     0.044412
      px      :     0.010234
      py      :     0.025122

 49 H s       :     0.776993  s :     0.776993
      pz      :     0.009724  p :     0.041718
      px      :     0.017856
      py      :     0.014138

 50 H s       :     0.754556  s :     0.754556
      pz      :     0.008850  p :     0.042777
      px      :     0.025137
      py      :     0.008790

 51 H s       :     0.780576  s :     0.780576
      pz      :     0.027174  p :     0.042110
      px      :     0.008074
      py      :     0.006862

 52 H s       :     0.773556  s :     0.773556
      pz      :     0.009280  p :     0.041193
      px      :     0.006487
      py      :     0.025426

 53 H s       :     0.769834  s :     0.769834
      pz      :     0.026881  p :     0.041732
      px      :     0.007511
      py      :     0.007340

 54 H s       :     0.765408  s :     0.765408
      pz      :     0.006994  p :     0.041543
      px      :     0.008158
      py      :     0.026391

 55 H s       :     0.764184  s :     0.764184
      pz      :     0.006460  p :     0.043342
      px      :     0.024622
      py      :     0.012260

 56 H s       :     0.782126  s :     0.782126
      pz      :     0.007816  p :     0.041902
      px      :     0.026621
      py      :     0.007465

 57 H s       :     0.754752  s :     0.754752
      pz      :     0.026652  p :     0.043659
      px      :     0.010685
      py      :     0.006322

 58 H s       :     0.762604  s :     0.762604
      pz      :     0.010129  p :     0.041816
      px      :     0.008837
      py      :     0.022850

 59 H s       :     0.770745  s :     0.770745
      pz      :     0.012618  p :     0.041185
      px      :     0.014459
      py      :     0.014108

 60 H s       :     0.738541  s :     0.738541
      pz      :     0.025424  p :     0.043160
      px      :     0.011343
      py      :     0.006393

 61 H s       :     0.778077  s :     0.778077
      pz      :     0.019675  p :     0.044447
      px      :     0.009917
      py      :     0.014855

 62 H s       :     0.784094  s :     0.784094
      pz      :     0.020760  p :     0.044099
      px      :     0.014035
      py      :     0.009305

 63 H s       :     0.784804  s :     0.784804
      pz      :     0.007241  p :     0.044130
      px      :     0.026605
      py      :     0.010284

 64 H s       :     0.785416  s :     0.785416
      pz      :     0.018852  p :     0.044066
      px      :     0.009800
      py      :     0.015413

 65 H s       :     0.786977  s :     0.786977
      pz      :     0.019835  p :     0.043944
      px      :     0.014030
      py      :     0.010079

 66 H s       :     0.768113  s :     0.768113
      pz      :     0.014444  p :     0.040471
      px      :     0.007047
      py      :     0.018980

 67 H s       :     0.734649  s :     0.734649
      pz      :     0.010447  p :     0.044014
      px      :     0.020866
      py      :     0.012702

 68 H s       :     0.777902  s :     0.777902
      pz      :     0.009534  p :     0.044448
      px      :     0.013875
      py      :     0.021039

 69 H s       :     0.784069  s :     0.784069
      pz      :     0.014888  p :     0.044103
      px      :     0.015323
      py      :     0.013891

 70 H s       :     0.785029  s :     0.785029
      pz      :     0.027315  p :     0.044124
      px      :     0.008062
      py      :     0.008747

 71 H s       :     0.785681  s :     0.785681
      pz      :     0.009481  p :     0.044052
      px      :     0.013115
      py      :     0.021456

 72 H s       :     0.787187  s :     0.787187
      pz      :     0.014833  p :     0.044071
      px      :     0.014661
      py      :     0.014577



                      *****************************
                      * MAYER POPULATION ANALYSIS *
                      *****************************

  NA   - Mulliken gross atomic population
  ZA   - Total nuclear charge
  QA   - Mulliken gross atomic charge
  VA   - Mayer's total valence
  BVA  - Mayer's bonded valence
  FA   - Mayer's free valence

  ATOM       NA         ZA         QA         VA         BVA        FA
  0 O      8.3526     8.0000    -0.3526     2.0467     2.0467     0.0000
  1 C      5.9706     6.0000     0.0294     4.2606     4.2606     0.0000
  2 O      8.3603     8.0000    -0.3603     1.8099     1.8099    -0.0000
  3 Ni    27.4533    28.0000     0.5467     2.4062     2.4062    -0.0000
  4 N      7.1931     7.0000    -0.1931     2.7769     2.7769     0.0000
  5 C      5.9138     6.0000     0.0862     3.2371     3.2371     0.0000
  6 C      5.9179     6.0000     0.0821     3.6864     3.6864    -0.0000
  7 C      6.2306     6.0000    -0.2306     3.8102     3.8102    -0.0000
  8 C      6.1710     6.0000    -0.1710     3.7939     3.7939    -0.0000
  9 C      6.1532     6.0000    -0.1532     3.8025     3.8025     0.0000
 10 C      6.2301     6.0000    -0.2301     3.7512     3.7512    -0.0000
 11 C      6.1199     6.0000    -0.1199     3.8273     3.8273    -0.0000
 12 C      5.8824     6.0000     0.1176     3.9059     3.9059     0.0000
 13 C      6.1876     6.0000    -0.1876     3.8504     3.8504     0.0000
 14 C      6.1694     6.0000    -0.1694     3.7349     3.7349     0.0000
 15 C      6.2023     6.0000    -0.2023     3.8283     3.8283     0.0000
 16 C      6.1286     6.0000    -0.1286     3.7760     3.7760    -0.0000
 17 C      6.3426     6.0000    -0.3426     3.8208     3.8208    -0.0000
 18 N      7.0984     7.0000    -0.0984     2.9296     2.9296     0.0000
 19 C      6.4307     6.0000    -0.4307     3.7947     3.7947     0.0000
 20 C      6.3027     6.0000    -0.3027     3.7438     3.7438     0.0000
 21 C      6.3403     6.0000    -0.3403     3.7322     3.7322     0.0000
 22 N      7.0899     7.0000    -0.0899     2.9083     2.9083     0.0000
 23 C      6.4302     6.0000    -0.4302     3.7542     3.7542    -0.0000
 24 C      6.3947     6.0000    -0.3947     3.7862     3.7862    -0.0000
 25 C      5.8705     6.0000     0.1295     3.4313     3.4313    -0.0000
 26 C      6.1772     6.0000    -0.1772     3.8948     3.8948    -0.0000
 27 C      6.1466     6.0000    -0.1466     3.8012     3.8012     0.0000
 28 C      6.1342     6.0000    -0.1342     3.8305     3.8305    -0.0000
 29 C      6.1618     6.0000    -0.1618     3.8455     3.8455    -0.0000
 30 C      6.2208     6.0000    -0.2208     3.8760     3.8760    -0.0000
 31 C      6.3727     6.0000    -0.3727     3.7370     3.7370    -0.0000
 32 C      5.8828     6.0000     0.1172     3.4160     3.4160    -0.0000
 33 C      6.1746     6.0000    -0.1746     3.9008     3.9008     0.0000
 34 C      6.1503     6.0000    -0.1503     3.8073     3.8073     0.0000
 35 C      6.1337     6.0000    -0.1337     3.8282     3.8282     0.0000
 36 C      6.1615     6.0000    -0.1615     3.8440     3.8440     0.0000
 37 C      6.1795     6.0000    -0.1795     3.8590     3.8590     0.0000
 38 H      0.8251     1.0000     0.1749     0.9590     0.9590     0.0000
 39 H      0.8445     1.0000     0.1555     0.9660     0.9660    -0.0000
 40 H      0.8524     1.0000     0.1476     0.9693     0.9693    -0.0000
 41 H      0.8516     1.0000     0.1484     0.9689     0.9689     0.0000
 42 H      0.8512     1.0000     0.1488     0.9688     0.9688     0.0000
 43 H      0.8384     1.0000     0.1616     0.9585     0.9585    -0.0000
 44 H      0.8824     1.0000     0.1176     0.9802     0.9802     0.0000
 45 H      0.8571     1.0000     0.1429     0.9709     0.9709    -0.0000
 46 H      0.8550     1.0000     0.1450     0.9709     0.9709     0.0000
 47 H      0.8561     1.0000     0.1439     0.9699     0.9699    -0.0000
 48 H      0.8642     1.0000     0.1358     0.9737     0.9737     0.0000
 49 H      0.8344     1.0000     0.1656     0.9557     0.9557     0.0000
 50 H      0.7845     1.0000     0.2155     0.9422     0.9422     0.0000
 51 H      0.8238     1.0000     0.1762     0.9491     0.9491    -0.0000
 52 H      0.8268     1.0000     0.1732     0.9433     0.9433     0.0000
 53 H      0.8158     1.0000     0.1842     0.9508     0.9508     0.0000
 54 H      0.8163     1.0000     0.1837     0.9456     0.9456    -0.0000
 55 H      0.8042     1.0000     0.1958     0.9490     0.9490    -0.0000
 56 H      0.8294     1.0000     0.1706     0.9458     0.9458    -0.0000
 57 H      0.7908     1.0000     0.2092     0.9454     0.9454    -0.0000
 58 H      0.8205     1.0000     0.1795     0.9576     0.9576    -0.0000
 59 H      0.8152     1.0000     0.1848     0.9430     0.9430    -0.0000
 60 H      0.7642     1.0000     0.2358     0.9318     0.9318    -0.0000
 61 H      0.8437     1.0000     0.1563     0.9654     0.9654    -0.0000
 62 H      0.8485     1.0000     0.1515     0.9677     0.9677     0.0000
 63 H      0.8479     1.0000     0.1521     0.9671     0.9671    -0.0000
 64 H      0.8504     1.0000     0.1496     0.9686     0.9686    -0.0000
 65 H      0.8514     1.0000     0.1486     0.9664     0.9664    -0.0000
 66 H      0.8202     1.0000     0.1798     0.9523     0.9523    -0.0000
 67 H      0.7546     1.0000     0.2454     0.9311     0.9311     0.0000
 68 H      0.8441     1.0000     0.1559     0.9655     0.9655     0.0000
 69 H      0.8480     1.0000     0.1520     0.9675     0.9675     0.0000
 70 H      0.8479     1.0000     0.1521     0.9671     0.9671    -0.0000
 71 H      0.8503     1.0000     0.1497     0.9684     0.9684     0.0000
 72 H      0.8566     1.0000     0.1434     0.9688     0.9688     0.0000

  Mayer bond orders larger than 0.100000
B(  0-O ,  1-C ) :   2.0078 B(  1-C ,  2-O ) :   1.3290 B(  1-C ,  5-C ) :   0.7712 
B(  2-O ,  3-Ni) :   0.5057 B(  2-O ,  5-C ) :  -0.1532 B(  3-Ni,  4-N ) :   0.7157 
B(  3-Ni, 18-N ) :   0.3467 B(  3-Ni, 22-N ) :   0.3607 B(  4-N ,  5-C ) :   0.8132 
B(  4-N ,  6-C ) :  -0.1084 B(  4-N , 12-C ) :   1.1317 B(  5-C ,  6-C ) :   0.8513 
B(  5-C , 38-H ) :   0.9318 B(  6-C ,  7-C ) :   1.3746 B(  6-C , 11-C ) :   1.4513 
B(  7-C ,  8-C ) :   1.4082 B(  7-C , 39-H ) :   0.9374 B(  8-C ,  9-C ) :   1.4001 
B(  8-C , 40-H ) :   0.9479 B(  9-C , 10-C ) :   1.4056 B(  9-C , 41-H ) :   0.9478 
B( 10-C , 11-C ) :   1.3679 B( 10-C , 42-H ) :   0.9506 B( 11-C , 43-H ) :   0.9313 
B( 12-C , 13-C ) :   1.4008 B( 12-C , 17-C ) :   1.3479 B( 13-C , 14-C ) :   1.3931 
B( 13-C , 44-H ) :   0.9035 B( 14-C , 15-C ) :   1.4051 B( 14-C , 45-H ) :   0.9376 
B( 15-C , 16-C ) :   1.3952 B( 15-C , 46-H ) :   0.9472 B( 16-C , 17-C ) :   1.4049 
B( 16-C , 47-H ) :   0.9470 B( 17-C , 48-H ) :   0.9447 B( 18-N , 19-C ) :   0.8702 
B( 18-N , 20-C ) :   0.8965 B( 18-N , 31-C ) :   0.8665 B( 19-C , 49-H ) :   0.9483 
B( 19-C , 50-H ) :   0.9419 B( 19-C , 51-H ) :   0.9471 B( 20-C , 21-C ) :   0.9076 
B( 20-C , 52-H ) :   0.9520 B( 20-C , 53-H ) :   0.9493 B( 21-C , 22-N ) :   0.8496 
B( 21-C , 54-H ) :   0.9625 B( 21-C , 55-H ) :   0.9617 B( 22-N , 23-C ) :   0.8887 
B( 22-N , 24-C ) :   0.8501 B( 23-C , 56-H ) :   0.9438 B( 23-C , 57-H ) :   0.9313 
B( 23-C , 58-H ) :   0.9409 B( 24-C , 25-C ) :   0.7515 B( 24-C , 59-H ) :   0.9918 
B( 24-C , 60-H ) :   0.9646 B( 25-C , 26-C ) :   1.4185 B( 25-C , 30-C ) :   1.3479 
B( 26-C , 27-C ) :   1.4148 B( 26-C , 61-H ) :   0.9464 B( 27-C , 28-C ) :   1.4110 
B( 27-C , 62-H ) :   0.9472 B( 28-C , 29-C ) :   1.4233 B( 28-C , 63-H ) :   0.9473 
B( 29-C , 30-C ) :   1.4347 B( 29-C , 64-H ) :   0.9442 B( 30-C , 65-H ) :   0.9515 
B( 31-C , 32-C ) :   0.7677 B( 31-C , 66-H ) :   0.9921 B( 31-C , 67-H ) :   0.9609 
B( 32-C , 33-C ) :   1.4209 B( 32-C , 37-C ) :   1.3435 B( 33-C , 34-C ) :   1.4177 
B( 33-C , 68-H ) :   0.9492 B( 34-C , 35-C ) :   1.4147 B( 34-C , 69-H ) :   0.9485 
B( 35-C , 36-C ) :   1.4207 B( 35-C , 70-H ) :   0.9466 B( 36-C , 37-C ) :   1.4364 
B( 36-C , 71-H ) :   0.9446 B( 37-C , 72-H ) :   0.9444 

-------
TIMINGS
-------

Total SCF time: 0 days 0 hours 0 min 21 sec 

Total time                  ....      21.452 sec
Sum of individual times     ....      20.052 sec  ( 93.5%)

SCF preparation             ....       0.594 sec  (  2.8%)
Fock matrix formation       ....      17.329 sec  ( 80.8%)
  Startup                   ....       0.030 sec  (  0.2% of F)
  Split-RI-J                ....       6.383 sec  ( 36.8% of F)
  XC integration            ....      11.885 sec  ( 68.6% of F)
    XC Preparation          ....       0.000 sec  (  0.0% of XC)
    Basis function eval.    ....       1.591 sec  ( 13.4% of XC)
    Density eval.           ....       5.210 sec  ( 43.8% of XC)
    XC-Functional eval.     ....       0.521 sec  (  4.4% of XC)
    XC-Potential eval.      ....       4.028 sec  ( 33.9% of XC)
Diagonalization             ....       0.000 sec  (  0.0%)
Density matrix formation    ....       0.177 sec  (  0.8%)
Total Energy calculation    ....       0.054 sec  (  0.3%)
Population analysis         ....       0.183 sec  (  0.9%)
Orbital Transformation      ....       0.158 sec  (  0.7%)
Orbital Orthonormalization  ....       0.000 sec  (  0.0%)
DIIS solution               ....       0.182 sec  (  0.9%)
SOSCF solution              ....       1.373 sec  (  6.4%)
Finished LeanSCF after  21.6 sec

Maximum memory used throughout the entire LEANSCF-calculation: 129.9 MB
[1769527371.920034] [node236:2515604:0]     ucp_context.c:1234 UCX  WARN  transport 'ib' is not available, please use one or more of: mm, posix, self, shm, sm, sysv, tcp
[1769527371.949120] [node236:2515605:0]     ucp_context.c:1234 UCX  WARN  transport 'ib' is not available, please use one or more of: mm, posix, self, shm, sm, sysv, tcp
[1769527371.951446] [node236:2515606:0]     ucp_context.c:1234 UCX  WARN  transport 'ib' is not available, please use one or more of: mm, posix, self, shm, sm, sysv, tcp
[1769527371.977177] [node236:2515609:0]     ucp_context.c:1234 UCX  WARN  transport 'ib' is not available, please use one or more of: mm, posix, self, shm, sm, sysv, tcp
[1769527371.976534] [node236:2515613:0]     ucp_context.c:1234 UCX  WARN  transport 'ib' is not available, please use one or more of: mm, posix, self, shm, sm, sysv, tcp
[1769527373.019043] [node236:2515616:0]     ucp_context.c:1234 UCX  WARN  transport 'ib' is not available, please use one or more of: mm, posix, self, shm, sm, sysv, tcp
[1769527373.033886] [node236:2515619:0]     ucp_context.c:1234 UCX  WARN  transport 'ib' is not available, please use one or more of: mm, posix, self, shm, sm, sysv, tcp
[1769527373.033886] [node236:2515622:0]     ucp_context.c:1234 UCX  WARN  transport 'ib' is not available, please use one or more of: mm, posix, self, shm, sm, sysv, tcp


           ************************************************************
           *        Program running with 8 parallel MPI-processes     *
           *              working on a common directory               *
           ************************************************************

------------------------------------------------------------------------------
                         ORCA PROPERTY INTEGRAL CALCULATIONS
------------------------------------------------------------------------------

GBWName                                   ... 0_1_confsstruct_2.gbw
Number of atoms                           ...     73
Number of basis functions                 ...    936
Max core memory                           ...  12000 MB

Dipole integrals                          ... YES
Quadrupole integrals                      ...  NO
Linear momentum integrals                 ...  NO
Angular momentum integrals                ...  NO
Higher moments length integrals           ...  NO
Higher moments velocity integrals         ...  NO
Kinetic energy integrals                  ...  NO
GIAO right hand sides                     ...  NO
GIAO dipole derivative integrals          ...  NO
SOC integrals                             ...  NO
EPR diamagnetic integrals (GIAO)          ...  NO
EPR gauge integrals                       ...  NO
Field gradient integrals                  ...  NO (   0 nuclei)
Spin-dipole/Fermi contact integrals       ...  NO (   0 nuclei)
Contact density integrals                 ...  NO (   0 nuclei)
Nucleus-orbit integrals                   ...  NO (   0 nuclei)
Geometric perturbations                   ... YES (  73 nuclei)

Choice of electric origin   ... Center of mass
Position of electric origin ... (  6.1173, -8.2218, -7.7039) 
Choice of magnetic origin   ... GIAO
Position of magnetic origin ... (  0.0000,  0.0000,  0.0000) 

Calculating integrals                     ... Electric Dipole (Length)     done (  0.0 sec)
Calculating integrals                     ... Geometrical perturbation right hand sides

-----------------------
GEOMETRIC PERTURBATIONS (73 nuclei)
-----------------------

MaxCore                            ...  12000 MB
Number of batches                  ...      1

BATCH   0: Atoms    0 -   72 (219 perturbations)
   => H(core) and overlap derivative integrals     ... done (     2.7 sec)
   => Making and storing internal U-coefficients   ... done (     0.7 sec)
   => RI-J derivative integrals                    ... 