
                                 *****************
                                 * O   R   C   A *
                                 *****************

                                            #,                                       
                                            ###                                      
                                            ####                                     
                                            #####                                    
                                            ######                                   
                                           ########,                                 
                                     ,,################,,,,,                         
                               ,,#################################,,                 
                          ,,##########################################,,             
                       ,#########################################, ''#####,          
                    ,#############################################,,   '####,        
                  ,##################################################,,,,####,       
                ,###########''''           ''''###############################       
              ,#####''   ,,,,##########,,,,          '''####'''          '####       
            ,##' ,,,,###########################,,,                        '##       
           ' ,,###''''                  '''############,,,                           
         ,,##''                                '''############,,,,        ,,,,,,###''
      ,#''                                            '''#######################'''  
     '                                                          ''''####''''         
             ,#######,   #######,   ,#######,      ##                                
            ,#'     '#,  ##    ##  ,#'     '#,    #''#        ,####,    ,#,          
            ##       ##  ##   ,#'  ##            #'  '#       #'       ,# #          
            ##       ##  #######   ##           ,######,      #####,      #          
            '#,     ,#'  ##    ##  '#,     ,#' ,#      #,     #,   #      #          
             '#######'   ##     ##  '#######'  #'      '#     '####' #    #          



                #########################################################
                #                        -***-                          #
                #          Department of theory and spectroscopy        #
                #                                                       #
                #                      Frank Neese                      #
                #                                                       #
                #     Directorship, Architecture, Infrastructure        #
                #                    SHARK, DRIVERS                     #
                #        Core code/Algorithms in most modules           #
                #                                                       #
                #        Max Planck Institute fuer Kohlenforschung      #
                #                Kaiser Wilhelm Platz 1                 #
                #                 D-45470 Muelheim/Ruhr                 #
                #                      Germany                          #
                #                                                       #
                #                  All rights reserved                  #
                #                        -***-                          #
                #########################################################


                         Program Version 6.1.0  -  RELEASE   -
                                (GIT: $679e74b$)
                          ($2025-06-10 18:02:51 +0200$)


 With contributions from (in alphabetic order):
[Max-Planck-Institut fuer Kohlenforschung]                               
  Daniel Aravena         : Magnetic Suceptibility                        
  Michael Atanasov       : Ab Initio Ligand Field Theory (pilot matlab implementation)
  Alexander A. Auer      : GIAO ZORA, VPT2 properties, NMR spectrum      
  Ute Becker             : All parallelization in ORCA, NUMFREQ, NUMCALC 
  Giovanni Bistoni       : ED, misc. LED, open-shell LED, HFLD           
  Dmytro Bykov           : pre 5.0 version of the SCF Hessian            
  Marcos Casanova-Páez   : Triplet and SCS-CIS(D). UHF-(DLPNO)-IP/EA/STEOM-CCSD. UHF-CVS-IP/STEOM-CCSD   
  Vijay G. Chilkuri      : MRCI spin determinant printing, contributions to CSF-ICE 
  Pauline Colinet        : FMM embedding                                 
  Dipayan Datta          : RHF DLPNO-CCSD density                        
  Achintya Kumar Dutta   : EOM-CC, STEOM-CC                              
  Nicolas Foglia         : Exact transition moments, OPA infrastructure, MCD improvements    
  Dmitry Ganyushin       : Spin-Orbit,Spin-Spin,Magnetic field MRCI      
  Miquel Garcia-Rates    : C-PCM and meta-GGA Hessian, CCSD/C-PCM, Gaussian charge scheme 
  Tiago L. C. Gouveia    : GS-ROHF, GS-ROCIS                             
  Yang Guo               : DLPNO-NEVPT2, F12-NEVPT2, CIM, IAO-localization        
  Andreas Hansen         : Spin unrestricted coupled pair/coupled cluster methods 
  Ingolf Harden          : AUTO-CI MPn and infrastructure                
  Benjamin Helmich-Paris : MC-RPA, TRAH-(SCF,CASSCF), AVAS, COSX integrals, SCF dyn. polar., MC-PDFT, srDFT 
  Lee Huntington         : MR-EOM, pCC                                   
  Robert Izsak           : Overlap fitted RIJCOSX, COSX-SCS-MP3, EOM     
  Riya Kayal             : Wick's Theorem for AUTO-CI, AUTO-CI UHF-CCSDT 
  Emily Kempfer          : AUTO-CI RHF CISDT and CCSDT, approximate NEVPT4
  Christian Kollmar      : KDIIS, OOCD, Brueckner-CCSD(T), CCSD density, CASPT2, CASPT2-K, improved NEVPT2 
  Axel Koslowski         : Symmetry handling                             
  Simone Kossmann        : meta-GGA functionals, TD-DFT gradient, OOMP2, (MP2 Hessian; deprecated post 5.0) 
  Lucas Lang             : DCDCAS, Hyperfine gauge corrections, ICE-SOC+SSC
  Marvin Lechner         : AUTO-CI (C++ implementation), FIC-MRCC        
  Spencer Leger          : CASSCF response                               
  Dagmar Lenk            : GEPOL surface, SMD, ORCA-2-JSON               
  Dimitrios Liakos       : Extrapolation schemes; Compound Job, Property file
  Dimitrios Manganas     : Further ROCIS development; embedding schemes. LFT, Crystal Embedding 
  Dimitrios Pantazis     : SARC Basis sets                               
  Anastasios Papadopoulos: AUTO-CI, single reference methods and gradients 
  Taras Petrenko         : pre 6.0 DFT Hessian and TD-DFT gradient,  ECA, NRVS 
  Petra Pikulova         : Analytic Raman intensities                    
  Peter Pinski           : DLPNO-MP2, DLPNO-MP2 Gradient                 
  Shashank Vittal Rao    : ES-AILFT, MagRelax                            
  Christoph Reimann      : Effective Core Potentials                     
  Marius Retegan         : Local ZFS, SOC                                
  Christoph Riplinger    : Optimizer, TS searches, QM/MM, DLPNO-CCSD(T), (RO)-DLPNO pert. Triples 
  Michael Roemelt        : Original ROCIS implementation, recursive CI coupling coefficients
  Masaaki Saitow         : Open-shell DLPNO-CCSD energy and density      
  Barbara Sandhoefer     : DKH picture change effects                    
  Yorick L. A. Schmerwitz: GMF and freeze-and-release deltaSCF, NEB S-IDPP initial path                    
  Kantharuban Sivalingam : CASSCF convergence/infrastructure, NEVPT2, NEVPT3, NEVPT4(SD), FIC-MRCI and CEPA variants
  Bernardo de Souza      : ESD, SOC TD-DFT                               
  Georgi L. Stoychev     : AutoAux, RI-MP2 NMR, DLPNO-MP2 response, X2C  
  Van Anh Tran           : RI-MP2 g-tensors                              
  Willem Van den Heuvel  : Paramagnetic NMR                              
  Zikuan Wang            : NOTCH, Electric field optimization            
  Frank Wennmohs         : Technical directorship and infrastructure     
  Hang Xu                : AUTO-CI-Response properties                   
                                                                         
[FACCTs GmbH]                                                            
  Markus Bursch, Nicolas Foglia, Miquel Garcia-Rates, Ingolf Harden, Hagen Neugebauer, Anastasios Papadopoulos, 
  Christoph Riplinger, Bernardo de Souza, Georgi L. Stoychev                                                    
                                                                 
  APM, various basis sets, CI-OPT, improved COSX, DLPNO-Multilevel,           
  DOCKER, DRACO, updates on ESD, Fragmentator, GOAT, IRC, LR-CPCM, L-BFGS, MBIS, meta-GGA TD-DFT gradient, ML-optimized integration grids, 
  MM, NACMEs, nearIR, NEB, NEB-TS, NL-DFT gradient (VV10), 2- and 3-layer-ONIOM, interface openCOSMO-RS, QMMM,   
  Crystal-QMMM, RESP, rigid body optimization, SF, symmetry and pop. for TD-DFT, various functionals, SOLVATOR                                   
                                                                         
[Other institutions]                                                     
  V. Asgeirsson          : NEB                                           
  Christoph Bannwarth    : sTDA-DFT, sTD-DFT, PBEh-3c, B97-3c, D3        
  Giovanni Bistoni       : ETS/NOCV, ADLD/ADEX, COVALED                  
  Martin Brehm           : Molecular dynamics                            
  Ronald Cardenas        : ETS/NOCV                                      
  Martina Colucci        : COVALED                                       
  Sebastian Ehlert       : rSCAN, r2SCAN, r2SCAN-3c, D4, dhf basis sets  
  Marvin Friede          : D4 for Fr, Ra, Ac-Lr                          
  Lars Goerigk           : TD-DFT with DH, B97 family of functionals     
  Stefan Grimme          : VdW corrections, initial TS optimization, DFT functionals, gCP, sTDA/sTD-DF 
  Waldemar Hujo          : DFT-NL                                        
  H. Jonsson             : NEB                                           
  Holger Kruse           : gCP                                           
  Marcel Mueller         : wB97X-3c, vDZP basis set                      
  Hagen Neugebauer       : wr2SCAN, Native XTB                           
  Gianluca Regni         : ADLD/ADEX                                     
  Tobias Risthaus        : pre 6.0 range-separated hybrid DFT and stability analysis
  Lukas Wittmann         : regularized MP2, r2SCAN double-hybrids, wr2SCAN        
                                                                         
We gratefully acknowledge several colleagues who have allowed us to      
interface, adapt or use parts of their codes:                            
  Ed Valeev, F. Pavosevic, A. Kumar             : LibInt (2-el integral package), F12 methods 
  Garnet Chan, S. Sharma, J. Yang, R. Olivares  : DMRG                   
  Ulf Ekstrom                                   : XCFun DFT Library      
  Mihaly Kallay                                 : mrcc  (arbitrary order and MRCC methods)
  Frank Weinhold                                : gennbo (NPA and NBO analysis)           
  Simon Mueller                                 : openCOSMO-RS                            
  Christopher J. Cramer and Donald G. Truhlar   : smd solvation model                     
  S Lehtola, MJT Oliveira, MAL Marques          : LibXC Library                           
  Liviu Ungur et al                             : ANISO software                          


 Your calculation uses the libint2 library for the computation of 2-el integrals
 For citations please refer to: http://libint.valeyev.net

 Your ORCA version has been built with support for libXC version: 7.0.0
 For citations please refer to: https://libxc.gitlab.io

 This ORCA versions uses:
   CBLAS   interface :  Fast vector & matrix operations
   LAPACKE interface :  Fast linear algebra routines
   SCALAPACK package :  Parallel linear algebra routines
   Shared memory     :  Shared parallel matrices
   BLAS/LAPACK       :  OpenBLAS 0.3.29  USE64BITINT DYNAMIC_ARCH NO_AFFINITY Cooperlake SINGLE_THREADED
        Core in use  :  Cooperlake
   Copyright (c) 2011-2014, The OpenBLAS Project


  ***********************************
  * Starting time: Tue Jan 27 15:56:48 2026
  * Host name:     node236.cluster
  * Process ID:    2480423
  * Working dir.:  /scratch/56627288
  ***********************************

NOTE: MaxCore=12000 MB was set to SCF,MP2,MDCI,CIPSI,MRCI,RASCI and CIS
      => If you want to overwrite this, your respective input block should be placed after the MaxCore statement
Your calculation utilizes the geometrical counterpoise correction gCP
Please cite in your paper:
H.Kruse, S. Grimme J.Chem.Phys., 136, (2012), 154101 
   

Your calculation utilizes the atom-pairwise dispersion correction
based on EEQ partial charges (D4)


================================================================================

----- Orbital basis set information -----
Your calculation utilizes the basis: def2-mTZVPP
   Stefan Grimme, Andreas Hansen, Sebastian Ehlert, and Jan-Michael Mewes 
   J. Chem. Phys. 154, 064103 (2021). DOI: 10.1063/5.0040021

----- AuxJ basis set information -----
Your calculation utilizes the basis: def2-mTZVPP/J
   Stefan Grimme, Andreas Hansen, Sebastian Ehlert, and Jan-Michael Mewes 
   J. Chem. Phys. 154, 000000 (2021). DOI: 10.1063/5.0040021

================================================================================
                                        WARNINGS
                       Please study these warnings very carefully!
================================================================================



WARNING: SCAN, rSCAN, or r2SCAN functional requested.
  ===> : libXC variant has now been activated.



WARNING: Geometry Optimization
  ===> : Switching off AutoStart
         For restart on a previous wavefunction, please use MOREAD

================================================================================
                                       INPUT FILE
================================================================================
NAME = 0_1_confsstruct_1.inp
|  1> !r2scan-3c opt freq 
|  2> %pal 
|  3> nprocs 8 
|  4> end 
|  5> %maxcore 12000
|  6>  
|  7> * XYZ 0 1 
|  8> O     -1.06421100     -8.14201000     -5.17704600
|  9> C     -0.34516000     -7.17244000     -5.07317900
| 10> O     -0.75759200     -5.99801900     -4.71933300
| 11> Ni      0.57644700     -4.92922700     -4.10734200
| 12> N      1.70067200     -5.84212600     -5.26646800
| 13> C      1.19466800     -7.23836400     -5.34097500
| 14> C      1.42699800     -7.96242300     -6.63366700
| 15> C      0.76091300     -7.56299800     -7.78794400
| 16> C      0.95471100     -8.23742300     -8.97797400
| 17> C      1.81044800     -9.32495200     -9.03132300
| 18> C      2.46478900     -9.73904300     -7.88464400
| 19> C      2.27394300     -9.06123200     -6.69356500
| 20> C      1.98033200     -5.21392600     -6.46702500
| 21> C      3.01333600     -5.65304300     -7.30838300
| 22> C      3.32864100     -4.95337900     -8.45433900
| 23> C      2.64729600     -3.79499600     -8.79379600
| 24> C      1.63077900     -3.34017500     -7.96925700
| 25> C      1.29958200     -4.04051700     -6.82856100
| 26> N      1.99321900     -3.87286300     -3.44323500
| 27> C      2.58981800     -4.84911900     -2.50943900
| 28> C      1.41307600     -2.75254000     -2.68215700
| 29> C      0.15351700     -3.23160800     -1.97902000
| 30> N     -0.61102700     -4.05022100     -2.93145600
| 31> C     -1.48205400     -4.96053000     -2.17265800
| 32> C     -1.44404400     -3.19624900     -3.82550400
| 33> C     -2.46843400     -2.33842500     -3.12668700
| 34> C     -2.16728800     -1.03210800     -2.75500100
| 35> C     -3.10208900     -0.24875400     -2.10033900
| 36> C     -4.35601100     -0.75952200     -1.81413500
| 37> C     -4.67562800     -2.05001100     -2.20157000
| 38> C     -3.74036700     -2.83181800     -2.85568500
| 39> C      3.07583700     -3.33103300     -4.30891100
| 40> C      4.17810800     -2.60614200     -3.57617700
| 41> C      5.29835700     -3.29485100     -3.12312300
| 42> C      6.31037600     -2.63544300     -2.44803400
| 43> C      6.22282300     -1.27238400     -2.22243600
| 44> C      5.12528900     -0.57087700     -2.69066600
| 45> C      4.11405600     -1.23312600     -3.36424200
| 46> H      1.64577100     -7.81011200     -4.51432100
| 47> H      0.08404300     -6.72233000     -7.74715000
| 48> H      0.43275300     -7.91602900     -9.86760500
| 49> H      1.96124600     -9.85243900     -9.96225100
| 50> H      3.12630900    -10.59339600     -7.91712400
| 51> H      2.78755300     -9.39004700     -5.80031700
| 52> H      3.56341000     -6.54518500     -7.05087800
| 53> H      4.12318700     -5.31477900     -9.09159100
| 54> H      2.90175100     -3.25564500     -9.69374600
| 55> H      1.08281100     -2.44485900     -8.23052300
| 56> H      0.47042700     -3.71682600     -6.18979400
| 57> H      1.81570200     -5.38394800     -1.95438100
| 58> H      3.25528700     -4.35329800     -1.79332200
| 59> H      3.15763200     -5.57987100     -3.08379700
| 60> H      1.16506300     -1.95719900     -3.38892300
| 61> H      2.13355300     -2.35227100     -1.95644200
| 62> H     -0.43919100     -2.38958800     -1.60240500
| 63> H      0.42400100     -3.84949600     -1.11969900
| 64> H     -0.87139600     -5.66019600     -1.59942600
| 65> H     -2.12834300     -4.40829900     -1.48201400
| 66> H     -2.09127200     -5.53959800     -2.86410100
| 67> H     -1.94885200     -3.87307400     -4.52111500
| 68> H     -0.77083200     -2.54779500     -4.39638700
| 69> H     -1.19957400     -0.61155300     -2.99518300
| 70> H     -2.85127100      0.76330700     -1.81849700
| 71> H     -5.08561300     -0.14958900     -1.30309500
| 72> H     -5.65870100     -2.44752200     -1.99807700
| 73> H     -4.00416400     -3.83019300     -3.17132600
| 74> H      3.50212100     -4.16767300     -4.86301900
| 75> H      2.61461900     -2.65393900     -5.03160500
| 76> H      5.38693700     -4.35421900     -3.31342700
| 77> H      7.17256100     -3.18630000     -2.10264900
| 78> H      7.01198700     -0.75690500     -1.69617100
| 79> H      5.05820400      0.49584700     -2.53585500
| 80> H      3.27205600     -0.67046200     -3.74199300
| 81> 
| 82> **                         ****END OF INPUT****
================================================================================

                       *****************************
                       * Geometry Optimization Run *
                       *****************************

Geometry optimization settings:
Update method            Update   .... BFGS
Choice of coordinates    CoordSys .... (2022) Redundant Internals
Initial Hessian          InHess   .... Almloef's Model
Max. no of cycles        MaxIter  .... 219

Convergence Tolerances:
Energy Change            TolE     ....  5.0000e-06 Eh
Max. Gradient            TolMAXG  ....  3.0000e-04 Eh/bohr
RMS Gradient             TolRMSG  ....  1.0000e-04 Eh/bohr
Max. Displacement        TolMAXD  ....  4.0000e-03 bohr
RMS Displacement         TolRMSD  ....  2.0000e-03 bohr
Strict Convergence                .... False

------------------------------------------------------------------------------
                        ORCA OPTIMIZATION COORDINATE SETUP
------------------------------------------------------------------------------

The optimization will be done in redundant internal coordinates (2022)
Making redundant internal coordinates   ...  (2022 redundants) done
Evaluating the initial hessian          ...  (Almloef) done
Evaluating the coordinates              ...  done
Calculating the B-matrix                .... done
Calculating the G-matrix                .... done
The number of degrees of freedom        ....  641

    -----------------------------------------------------------------
                    Redundant Internal Coordinates


    -----------------------------------------------------------------
         Definition                    Initial Value    Approx d2E/dq
    -----------------------------------------------------------------
      1. B(C   1,O   0)                  1.2116         1.077849   
      2. B(O   2,C   1)                  1.2941         0.796074   
      3. B(Ni  3,C   1)                  2.6104         0.071415   
      4. B(Ni  3,O   2)                  1.8156         1.185594   
      5. B(N   4,Ni  3)                  1.8550         1.026130   
      6. B(C   5,N   4)                  1.4870         0.391895   
      7. B(C   5,Ni  3)                  2.6900         0.053306   
      8. B(C   5,C   1)                  1.5643         0.329310   
      9. B(C   6,C   5)                  1.4998         0.417463   
     10. B(C   7,C   6)                  1.3912         0.621943   
     11. B(C   8,C   7)                  1.3815         0.644583   
     12. B(C   9,C   8)                  1.3849         0.636694   
     13. B(C  10,C   9)                  1.3837         0.639527   
     14. B(C  11,C  10)                  1.3837         0.639516   
     15. B(C  11,C   6)                  1.3886         0.627956   
     16. B(C  12,N   4)                  1.3835         0.573037   
     17. B(C  12,Ni  3)                  2.7604         0.041154   
     18. B(C  13,C  12)                  1.4028         0.596131   
     19. B(C  14,C  13)                  1.3792         0.650110   
     20. B(C  15,C  14)                  1.3861         0.633779   
     21. B(C  16,C  15)                  1.3857         0.634855   
     22. B(C  17,C  16)                  1.3789         0.650807   
     23. B(C  17,C  12)                  1.4039         0.593629   
     24. B(N  18,Ni  3)                  1.8879         0.909127   
     25. B(C  19,N  18)                  1.4768         0.406788   
     26. B(C  19,Ni  3)                  2.5716         0.082342   
     27. B(C  20,N  18)                  1.4734         0.411912   
     28. B(C  20,Ni  3)                  2.7330         0.045526   
     29. B(C  21,C  20)                  1.5200         0.387555   
     30. B(C  21,Ni  3)                  2.7551         0.041971   
     31. B(N  22,Ni  3)                  1.8882         0.908006   
     32. B(N  22,C  21)                  1.4703         0.416637   
     33. B(C  23,N  22)                  1.4708         0.415943   
     34. B(C  24,N  22)                  1.4908         0.386406   
     35. B(C  24,Ni  3)                  2.6768         0.055966   
     36. B(C  25,C  24)                  1.5078         0.405258   
     37. B(C  26,C  25)                  1.3912         0.622158   
     38. B(C  27,C  26)                  1.3842         0.638193   
     39. B(C  28,C  27)                  1.3839         0.639008   
     40. B(C  29,C  28)                  1.3848         0.636887   
     41. B(C  30,C  29)                  1.3834         0.640125   
     42. B(C  30,C  25)                  1.3909         0.622661   
     43. B(C  31,N  18)                  1.4883         0.389982   
     44. B(C  32,C  31)                  1.5091         0.403395   
     45. B(C  33,C  32)                  1.3909         0.622789   
     46. B(C  34,C  33)                  1.3837         0.639323   
     47. B(C  35,C  34)                  1.3844         0.637845   
     48. B(C  36,C  35)                  1.3842         0.638317   
     49. B(C  37,C  36)                  1.3838         0.639217   
     50. B(C  37,C  32)                  1.3908         0.623072   
     51. B(H  38,C   5)                  1.1017         0.344948   
     52. B(H  39,C   7)                  1.0801         0.373486   
     53. B(H  40,C   8)                  1.0804         0.373081   
     54. B(H  41,C   9)                  1.0806         0.372807   
     55. B(H  42,C  10)                  1.0810         0.372191   
     56. B(H  43,C  11)                  1.0816         0.371418   
     57. B(H  44,C  13)                  1.0793         0.374588   
     58. B(H  45,C  14)                  1.0807         0.372558   
     59. B(H  46,C  15)                  1.0796         0.374111   
     60. B(H  47,C  16)                  1.0817         0.371221   
     61. B(H  48,C  17)                  1.0956         0.352793   
     62. B(H  49,C  19)                  1.0924         0.356909   
     63. B(H  50,C  19)                  1.0961         0.352075   
     64. B(H  51,C  19)                  1.0892         0.361195   
     65. B(H  52,C  20)                  1.0925         0.356784   
     66. B(H  53,C  20)                  1.0982         0.349460   
     67. B(H  54,C  21)                  1.0964         0.351705   
     68. B(H  55,C  21)                  1.0924         0.356914   
     69. B(H  56,C  23)                  1.0913         0.358327   
     70. B(H  57,C  23)                  1.0953         0.353183   
     71. B(H  58,C  23)                  1.0884         0.362256   
     72. B(H  59,C  24)                  1.0940         0.354870   
     73. B(H  60,C  24)                  1.0953         0.353197   
     74. B(H  61,C  26)                  1.0821         0.370651   
     75. B(H  62,C  27)                  1.0801         0.373440   
     76. B(H  63,C  28)                  1.0796         0.374148   
     77. B(H  64,C  29)                  1.0797         0.373920   
     78. B(H  65,C  30)                  1.0798         0.373848   
     79. B(H  66,C  31)                  1.0903         0.359724   
     80. B(H  67,C  31)                  1.0925         0.356863   
     81. B(H  68,C  33)                  1.0800         0.373624   
     82. B(H  69,C  34)                  1.0799         0.373767   
     83. B(H  70,C  35)                  1.0796         0.374177   
     84. B(H  71,C  36)                  1.0800         0.373596   
     85. B(H  72,C  37)                  1.0809         0.372401   
     86. A(O   2,C   1,C   5)          113.5018         0.402827   
     87. A(Ni  3,C   1,C   5)           75.6427         0.300749   
     88. A(O   0,C   1,C   5)          122.3977         0.425107   
     89. A(O   0,C   1,Ni  3)          158.2712         0.363654   
     90. A(O   2,C   1,Ni  3)           39.7769         0.345448   
     91. A(O   0,C   1,O   2)          124.0952         0.496057   
     92. A(C   1,O   2,Ni  3)          113.0936         0.570531   
     93. A(O   2,Ni  3,C  21)          120.6848         0.377075   
     94. A(O   2,Ni  3,N   4)           86.8458         0.679448   
     95. A(C  12,Ni  3,C  20)          111.8531         0.226941   
     96. A(O   2,Ni  3,C  20)          150.4059         0.382426   
     97. A(C   5,Ni  3,C  12)           53.3138         0.231955   
     98. A(C   1,Ni  3,C  19)          122.2134         0.267699   
     99. A(N  22,Ni  3,C  24)           32.6856         0.378450   
    100. A(C  20,Ni  3,C  21)           32.1551         0.227556   
    101. A(C  21,Ni  3,N  22)           30.1803         0.360197   
    102. A(C  19,Ni  3,C  24)          120.3561         0.258107   
    103. A(C   5,Ni  3,C  24)          141.0333         0.242257   
    104. A(N   4,Ni  3,C  24)          147.3405         0.386574   
    105. A(C   5,Ni  3,C  21)          156.7049         0.232593   
    106. A(C   1,Ni  3,C  21)          139.5637         0.242419   
    107. A(C  12,Ni  3,C  19)           97.8275         0.246740   
    108. A(N  18,Ni  3,C  21)           59.9126         0.360273   
    109. A(N  18,Ni  3,C  20)           30.8152         0.365312   
    110. A(C  19,Ni  3,C  21)           67.7277         0.247444   
    111. A(O   2,Ni  3,C  24)           82.0672         0.396464   
    112. A(C   1,Ni  3,C  20)          170.2136         0.245269   
    113. A(C  20,Ni  3,N  22)           59.8016         0.365235   
    114. A(O   2,Ni  3,C  19)          143.4196         0.424544   
    115. A(C  20,Ni  3,C  24)           70.1551         0.236881   
    116. A(N  18,Ni  3,C  19)           34.5597         0.404973   
    117. A(N   4,Ni  3,C  19)           85.9347         0.413751   
    118. A(C   5,Ni  3,N  22)          146.0701         0.375277   
    119. A(O   2,Ni  3,C   5)           60.5916         0.393094   
    120. A(N   4,Ni  3,N  18)           92.3135         0.645009   
    121. A(N   4,Ni  3,C  12)           26.7284         0.366571   
    122. A(C  21,Ni  3,C  24)           53.4066         0.234184   
    123. A(C  19,Ni  3,C  20)           53.9492         0.250387   
    124. A(O   2,Ni  3,N  22)           91.2530         0.663328   
    125. A(C  12,Ni  3,C  24)          122.7286         0.233540   
    126. A(O   2,Ni  3,C  12)           91.4228         0.375796   
    127. A(N  18,Ni  3,C  24)           99.6229         0.378530   
    128. A(C   1,Ni  3,N  22)          114.1056         0.394868   
    129. A(C   5,Ni  3,C  20)          148.4829         0.235260   
    130. A(C  12,Ni  3,C  21)          143.3188         0.224425   
    131. A(C   1,Ni  3,O   2)           27.1295         0.413904   
    132. A(C   1,Ni  3,C   5)           34.2892         0.250950   
    133. A(C   1,Ni  3,C  24)          109.1967         0.252745   
    134. A(C   5,Ni  3,N  18)          117.9805         0.375357   
    135. A(C  19,Ni  3,N  22)           95.2161         0.404885   
    136. A(N   4,Ni  3,C  21)          151.5228         0.367809   
    137. A(C  12,Ni  3,N  22)          154.1808         0.358993   
    138. A(C   1,Ni  3,N  18)          151.1558         0.394953   
    139. A(C   1,Ni  3,N   4)           63.8868         0.403453   
    140. A(N   4,Ni  3,C   5)           31.9709         0.383312   
    141. A(N  18,Ni  3,N  22)           89.5647         0.629830   
    142. A(N   4,Ni  3,C  20)          122.1611         0.372988   
    143. A(C   1,Ni  3,C  12)           76.9762         0.241738   
    144. A(C  12,Ni  3,N  18)           88.6679         0.359069   
    145. A(C   5,Ni  3,C  19)           97.5714         0.256254   
    146. A(Ni  3,N   4,C   5)          106.6894         0.485975   
    147. A(Ni  3,N   4,C  12)          116.1859         0.521624   
    148. A(C   5,N   4,C  12)          116.8498         0.389532   
    149. A(C   1,C   5,Ni  3)           70.0681         0.287186   
    150. A(N   4,C   5,C   6)          116.3464         0.371061   
    151. A(C   1,C   5,C   6)          108.6861         0.362419   
    152. A(Ni  3,C   5,N   4)           41.3397         0.293451   
    153. A(Ni  3,C   5,C   6)          147.7048         0.298117   
    154. A(C   6,C   5,H  38)          109.4367         0.327973   
    155. A(C   1,C   5,N   4)          106.6673         0.356318   
    156. A(N   4,C   5,H  38)          108.0815         0.322641   
    157. A(Ni  3,C   5,H  38)          101.2731         0.262219   
    158. A(C   1,C   5,H  38)          107.2455         0.315482   
    159. A(C   5,C   6,C   7)          120.1554         0.404741   
    160. A(C   7,C   6,C  11)          118.9077         0.435309   
    161. A(C   5,C   6,C  11)          120.9095         0.405429   
    162. A(C   6,C   7,C   8)          120.4881         0.437363   
    163. A(C   8,C   7,H  39)          120.0278         0.357450   
    164. A(C   6,C   7,H  39)          119.4832         0.355287   
    165. A(C   7,C   8,C   9)          120.2139         0.439216   
    166. A(C   9,C   8,H  40)          120.0286         0.356638   
    167. A(C   7,C   8,H  40)          119.7570         0.357384   
    168. A(C   8,C   9,C  10)          119.6903         0.438592   
    169. A(C  10,C   9,H  41)          120.1245         0.356862   
    170. A(C   8,C   9,H  41)          120.1837         0.356593   
    171. A(C   9,C  10,C  11)          120.1029         0.438942   
    172. A(C  11,C  10,H  42)          119.8298         0.356761   
    173. A(C   9,C  10,H  42)          120.0673         0.356762   
    174. A(C   6,C  11,C  10)          120.5895         0.437499   
    175. A(C  10,C  11,H  43)          119.7689         0.356635   
    176. A(C   6,C  11,H  43)          119.6415         0.355532   
    177. A(C  13,C  12,C  17)          117.6617         0.427665   
    178. A(Ni  3,C  12,C  17)           83.5307         0.302581   
    179. A(Ni  3,C  12,C  13)          156.8526         0.302784   
    180. A(N   4,C  12,C  17)          120.3277         0.421888   
    181. A(N   4,C  12,C  13)          121.8144         0.422205   
    182. A(Ni  3,C  12,N   4)           37.0856         0.299137   
    183. A(C  12,C  13,C  14)          120.5240         0.434704   
    184. A(C  14,C  13,H  44)          120.0709         0.358149   
    185. A(C  12,C  13,H  44)          119.4050         0.352920   
    186. A(C  15,C  14,H  45)          119.7646         0.356275   
    187. A(C  13,C  14,H  45)          119.2331         0.357818   
    188. A(C  13,C  14,C  15)          121.0016         0.439529   
    189. A(C  14,C  15,C  16)          119.2869         0.437650   
    190. A(C  16,C  15,H  46)          120.3283         0.356629   
    191. A(C  14,C  15,H  46)          120.3839         0.356526   
    192. A(C  15,C  16,C  17)          120.1160         0.439749   
    193. A(C  17,C  16,H  47)          119.9014         0.357665   
    194. A(C  15,C  16,H  47)          119.9717         0.356160   
    195. A(C  12,C  17,C  16)          121.4041         0.434459   
    196. A(C  16,C  17,H  48)          120.9334         0.354586   
    197. A(C  12,C  17,H  48)          117.6306         0.349116   
    198. A(C  20,N  18,C  31)          108.0621         0.367585   
    199. A(C  19,N  18,C  31)          108.3358         0.366797   
    200. A(Ni  3,N  18,C  31)          123.0239         0.474817   
    201. A(Ni  3,N  18,C  19)           98.9574         0.478519   
    202. A(C  19,N  18,C  20)          109.5781         0.370259   
    203. A(Ni  3,N  18,C  20)          108.1603         0.479624   
    204. A(Ni  3,C  19,N  18)           46.4830         0.316508   
    205. A(N  18,C  19,H  50)          111.0590         0.325715   
    206. A(H  49,C  19,H  51)          107.9923         0.290572   
    207. A(H  50,C  19,H  51)          109.3596         0.289951   
    208. A(N  18,C  19,H  51)          108.7044         0.327089   
    209. A(Ni  3,C  19,H  51)           93.4163         0.282135   
    210. A(H  49,C  19,H  50)          108.6458         0.289408   
    211. A(Ni  3,C  19,H  50)          153.5517         0.281020   
    212. A(N  18,C  19,H  49)          111.0170         0.326447   
    213. A(Ni  3,C  19,H  49)           75.2661         0.281614   
    214. A(H  52,C  20,H  53)          108.1256         0.289055   
    215. A(C  21,C  20,H  53)          110.6611         0.324678   
    216. A(N  18,C  20,H  53)          111.1109         0.325986   
    217. A(Ni  3,C  20,H  53)          146.6949         0.256634   
    218. A(C  21,C  20,H  52)          109.9127         0.325788   
    219. A(N  18,C  20,H  52)          107.9845         0.327101   
    220. A(Ni  3,C  20,H  52)           99.9603         0.257423   
    221. A(N  18,C  20,C  21)          109.0006         0.369500   
    222. A(Ni  3,C  20,C  21)           74.7242         0.287415   
    223. A(Ni  3,C  20,N  18)           41.0245         0.288515   
    224. A(Ni  3,C  21,N  22)           40.2124         0.285384   
    225. A(Ni  3,C  21,H  55)          102.7762         0.254366   
    226. A(C  20,C  21,N  22)          107.8614         0.370225   
    227. A(H  54,C  21,H  55)          107.3390         0.289361   
    228. A(N  22,C  21,H  55)          108.8684         0.327736   
    229. A(C  20,C  21,H  55)          109.6927         0.325807   
    230. A(N  22,C  21,H  54)          111.6534         0.326943   
    231. A(C  20,C  21,H  54)          111.3959         0.325020   
    232. A(Ni  3,C  21,H  54)          145.2393         0.253816   
    233. A(Ni  3,C  21,C  20)           73.1208         0.283796   
    234. A(C  21,N  22,C  23)          108.5633         0.372410   
    235. A(Ni  3,N  22,C  23)          113.9289         0.480377   
    236. A(Ni  3,N  22,C  21)          109.6074         0.480524   
    237. A(C  23,N  22,C  24)          109.4526         0.367618   
    238. A(C  21,N  22,C  24)          111.1067         0.367724   
    239. A(Ni  3,N  22,C  24)          104.1579         0.473906   
    240. A(H  56,C  23,H  58)          107.8063         0.290887   
    241. A(H  57,C  23,H  58)          109.7892         0.290227   
    242. A(N  22,C  23,H  58)          109.4535         0.328450   
    243. A(H  56,C  23,H  57)          108.7963         0.289731   
    244. A(N  22,C  23,H  57)          111.2670         0.327079   
    245. A(N  22,C  23,H  56)          109.6586         0.327860   
    246. A(N  22,C  24,C  25)          115.3129         0.368280   
    247. A(Ni  3,C  24,C  25)          158.4240         0.299019   
    248. A(Ni  3,C  24,N  22)           43.1566         0.295057   
    249. A(H  59,C  24,H  60)          108.5718         0.289293   
    250. A(C  25,C  24,H  60)          108.8035         0.327647   
    251. A(N  22,C  24,H  60)          107.9553         0.323145   
    252. A(Ni  3,C  24,H  60)           82.2104         0.265077   
    253. A(C  25,C  24,H  59)          109.4613         0.327902   
    254. A(N  22,C  24,H  59)          106.5450         0.323396   
    255. A(Ni  3,C  24,H  59)           83.1549         0.265266   
    256. A(C  26,C  25,C  30)          118.6192         0.434672   
    257. A(C  24,C  25,C  30)          120.6469         0.402710   
    258. A(C  24,C  25,C  26)          120.7288         0.402652   
    259. A(C  25,C  26,C  27)          120.7689         0.436606   
    260. A(C  27,C  26,H  61)          119.2718         0.356384   
    261. A(C  25,C  26,H  61)          119.9481         0.354849   
    262. A(C  26,C  27,C  28)          120.0561         0.438714   
    263. A(C  28,C  27,H  62)          120.1510         0.356916   
    264. A(C  26,C  27,H  62)          119.7922         0.356838   
    265. A(C  27,C  28,C  29)          119.6844         0.438552   
    266. A(C  29,C  28,H  63)          120.1958         0.356829   
    267. A(C  27,C  28,H  63)          120.1146         0.357030   
    268. A(C  28,C  29,C  30)          120.1922         0.438690   
    269. A(C  30,C  29,H  64)          119.7743         0.357099   
    270. A(C  28,C  29,H  64)          120.0328         0.356792   
    271. A(C  25,C  30,C  29)          120.6557         0.436907   
    272. A(C  29,C  30,H  65)          119.7074         0.357088   
    273. A(C  25,C  30,H  65)          119.6315         0.355414   
    274. A(N  18,C  31,C  32)          115.0732         0.368571   
    275. A(H  66,C  31,H  67)          107.7259         0.290380   
    276. A(C  32,C  31,H  67)          109.3816         0.327956   
    277. A(N  18,C  31,H  67)          107.6570         0.324183   
    278. A(C  32,C  31,H  66)          109.2556         0.328388   
    279. A(N  18,C  31,H  66)          107.4970         0.324608   
    280. A(C  33,C  32,C  37)          118.4443         0.434803   
    281. A(C  31,C  32,C  37)          120.9690         0.402429   
    282. A(C  31,C  32,C  33)          120.5711         0.402397   
    283. A(C  32,C  33,C  34)          120.7979         0.436824   
    284. A(C  34,C  33,H  68)          119.5665         0.356975   
    285. A(C  32,C  33,H  68)          119.6290         0.355391   
    286. A(C  33,C  34,C  35)          120.1623         0.438710   
    287. A(C  35,C  34,H  69)          120.0423         0.356858   
    288. A(C  33,C  34,H  69)          119.7943         0.356999   
    289. A(C  34,C  35,C  36)          119.6055         0.438586   
    290. A(C  36,C  35,H  70)          120.1678         0.356970   
    291. A(C  34,C  35,H  70)          120.2216         0.356925   
    292. A(C  35,C  36,C  37)          120.1029         0.438756   
    293. A(C  37,C  36,H  71)          119.8072         0.356961   
    294. A(C  35,C  36,H  71)          120.0891         0.356875   
    295. A(C  32,C  37,C  36)          120.8635         0.436847   
    296. A(C  36,C  37,H  72)          119.3580         0.356767   
    297. A(C  32,C  37,H  72)          119.7722         0.355221   
    298. D(Ni  3,O   2,C   1,C   5)    -19.0944         0.053965   
    299. D(Ni  3,O   2,C   1,O   0)    160.0808         0.053965   
    300. D(C   5,Ni  3,C   1,O   0)    148.3910         0.010000   
    301. D(N   4,Ni  3,O   2,C   1)     30.7802         0.010850   
    302. D(N   4,Ni  3,C   1,O   0)    165.0366         0.010000   
    303. D(C  12,Ni  3,C   1,C   5)     41.4754         0.010000   
    304. D(O   2,Ni  3,C   1,C   5)    161.9612         0.010000   
    305. D(C  24,Ni  3,O   2,C   1)    179.9842         0.010850   
    306. D(N  18,Ni  3,C   1,O   0)    127.8641         0.010000   
    307. D(N  18,Ni  3,C   1,C   5)    -20.5269         0.010000   
    308. D(C  12,Ni  3,C   1,O   0)   -170.1337         0.010000   
    309. D(N   4,Ni  3,C   1,C   5)     16.6457         0.010000   
    310. D(C  20,Ni  3,O   2,C   1)   -159.9661         0.010850   
    311. D(C  21,Ni  3,O   2,C   1)   -141.5125         0.010850   
    312. D(C  19,Ni  3,O   2,C   1)    -48.0689         0.010850   
    313. D(C  12,Ni  3,C   1,O   2)   -120.4858         0.010000   
    314. D(C   5,Ni  3,O   2,C   1)     11.5521         0.010850   
    315. D(N  22,Ni  3,O   2,C   1)   -148.5586         0.010850   
    316. D(N   4,Ni  3,C   1,O   2)   -145.3155         0.010000   
    317. D(O   2,Ni  3,C   1,O   0)    -49.6478         0.010000   
    318. D(N  18,Ni  3,C   1,O   2)    177.5119         0.010000   
    319. D(C  12,Ni  3,O   2,C   1)     57.1239         0.010850   
    320. D(C   5,Ni  3,C   1,O   2)   -161.9612         0.010000   
    321. D(C   5,N   4,Ni  3,C  21)    133.1936         0.010000   
    322. D(C   5,N   4,Ni  3,C  12)   -132.2896         0.010000   
    323. D(C   5,N   4,Ni  3,O   2)    -32.8084         0.010000   
    324. D(C   5,N   4,Ni  3,C   1)    -17.7451         0.010000   
    325. D(C   5,N   4,Ni  3,N  18)    145.2933         0.010000   
    326. D(C   5,N   4,Ni  3,C  20)    153.4363         0.010000   
    327. D(C   5,N   4,Ni  3,C  24)   -102.8032         0.010000   
    328. D(C  12,N   4,Ni  3,C  19)   -116.4047         0.010000   
    329. D(C  12,N   4,Ni  3,C   5)    132.2896         0.010000   
    330. D(C  12,N   4,Ni  3,O   2)     99.4812         0.010000   
    331. D(C  12,N   4,Ni  3,N  18)    -82.4171         0.010000   
    332. D(C  12,N   4,Ni  3,C   1)    114.5445         0.010000   
    333. D(C   5,N   4,Ni  3,C  19)    111.3057         0.010000   
    334. D(H  38,C   5,N   4,Ni  3)    -86.5723         0.014045   
    335. D(C   6,C   5,N   4,Ni  3)    149.9014         0.014045   
    336. D(C   1,C   5,N   4,Ni  3)     28.4705         0.014045   
    337. D(C   1,C   5,N   4,C  12)   -103.4526         0.014045   
    338. D(Ni  3,C   5,N   4,C  12)   -131.9231         0.014045   
    339. D(N   4,C   5,Ni  3,C  19)    -69.6334         0.010000   
    340. D(N   4,C   5,Ni  3,O   2)    141.6082         0.010000   
    341. D(N   4,C   5,Ni  3,C   1)    150.9366         0.010000   
    342. D(C   1,C   5,Ni  3,C  24)    -27.7389         0.010000   
    343. D(C   1,C   5,Ni  3,C  12)   -126.4239         0.010000   
    344. D(C   1,C   5,Ni  3,C  21)     90.5853         0.010000   
    345. D(C   1,C   5,Ni  3,N   4)   -150.9366         0.010000   
    346. D(N   4,C   5,Ni  3,C  12)     24.5127         0.010000   
    347. D(C   6,C   5,N   4,C  12)     17.9783         0.014045   
    348. D(C   1,C   5,Ni  3,N  18)    168.9565         0.010000   
    349. D(C   1,C   5,Ni  3,N  22)     28.2137         0.010000   
    350. D(C   1,C   5,Ni  3,C  19)    139.4300         0.010000   
    351. D(C   6,C   5,C   1,O   0)     47.5388         0.010000   
    352. D(C   6,C   5,C   1,O   2)   -133.2702         0.010000   
    353. D(N   4,C   5,C   1,Ni  3)    -19.5688         0.010000   
    354. D(N   4,C   5,C   1,O   2)     -7.0921         0.010000   
    355. D(C   1,C   5,Ni  3,C  20)    162.6619         0.010000   
    356. D(N   4,C   5,C   1,O   0)    173.7169         0.010000   
    357. D(Ni  3,C   5,C   1,O   0)   -166.7143         0.010000   
    358. D(C   1,C   5,Ni  3,O   2)     -9.3284         0.010000   
    359. D(N   4,C   5,Ni  3,N  18)    -40.1069         0.010000   
    360. D(Ni  3,C   5,C   1,O   2)     12.4767         0.010000   
    361. D(H  38,C   5,N   4,C  12)    141.5046         0.014045   
    362. D(C  11,C   6,C   5,Ni  3)    152.0644         0.013792   
    363. D(C   7,C   6,C   5,Ni  3)    -29.8635         0.013792   
    364. D(C  11,C   6,C   5,C   1)   -125.8949         0.013792   
    365. D(C   7,C   6,C   5,H  38)    168.9995         0.013792   
    366. D(C   7,C   6,C   5,N   4)    -68.1783         0.013792   
    367. D(C   7,C   6,C   5,C   1)     52.1773         0.013792   
    368. D(H  39,C   7,C   6,C  11)    178.7257         0.026777   
    369. D(H  39,C   7,C   6,C   5)      0.6152         0.026777   
    370. D(C   8,C   7,C   6,C  11)     -0.9281         0.026777   
    371. D(C   8,C   7,C   6,C   5)   -179.0386         0.026777   
    372. D(C   9,C   8,C   7,H  39)   -179.2889         0.028896   
    373. D(H  40,C   8,C   7,C   6)   -179.8894         0.028896   
    374. D(C   9,C   8,C   7,C   6)      0.3630         0.028896   
    375. D(H  40,C   8,C   7,H  39)      0.4587         0.028896   
    376. D(H  41,C   9,C   8,H  40)      0.2191         0.028146   
    377. D(H  41,C   9,C   8,C   7)    179.9661         0.028146   
    378. D(C  10,C   9,C   8,H  40)   -179.3370         0.028146   
    379. D(C  10,C   9,C   8,C   7)      0.4099         0.028146   
    380. D(H  42,C  10,C   9,H  41)     -0.1818         0.028414   
    381. D(C  11,C  10,C   9,H  41)    179.8389         0.028414   
    382. D(C  11,C  10,C   9,C   8)     -0.6047         0.028414   
    383. D(H  42,C  10,C   9,C   8)    179.3746         0.028414   
    384. D(H  43,C  11,C  10,H  42)     -0.0270         0.028413   
    385. D(H  43,C  11,C  10,C   9)    179.9523         0.028413   
    386. D(C   6,C  11,C  10,H  42)   -179.9508         0.028413   
    387. D(C   6,C  11,C  10,C   9)      0.0286         0.028413   
    388. D(H  43,C  11,C   6,C   7)   -179.1910         0.027330   
    389. D(H  43,C  11,C   6,C   5)     -1.0952         0.027330   
    390. D(C  10,C  11,C   6,C   7)      0.7328         0.027330   
    391. D(C  10,C  11,C   6,C   5)    178.8287         0.027330   
    392. D(C  17,C  12,N   4,C   5)    119.4678         0.028574   
    393. D(N   4,C  12,Ni  3,C  24)   -161.5938         0.010000   
    394. D(Ni  3,C  12,N   4,C   5)    127.4191         0.028574   
    395. D(C  13,C  12,Ni  3,O   2)   -109.5963         0.010000   
    396. D(C  13,C  12,Ni  3,C   5)    -58.7212         0.010000   
    397. D(C  13,C  12,Ni  3,C   1)    -86.4498         0.010000   
    398. D(C  13,C  12,N   4,C   5)    -65.7412         0.028574   
    399. D(N   4,C  12,Ni  3,N  22)   -175.9423         0.010000   
    400. D(C  13,C  12,N   4,Ni  3)    166.8397         0.028574   
    401. D(N   4,C  12,Ni  3,C  21)    127.2774         0.010000   
    402. D(C  13,C  12,Ni  3,N   4)    -29.4831         0.010000   
    403. D(N   4,C  12,Ni  3,C  20)    118.6032         0.010000   
    404. D(N   4,C  12,Ni  3,C   5)    -29.2382         0.010000   
    405. D(N   4,C  12,Ni  3,O   2)    -80.1133         0.010000   
    406. D(N   4,C  12,Ni  3,C   1)    -56.9667         0.010000   
    407. D(C  17,C  12,N   4,Ni  3)     -7.9512         0.028574   
    408. D(N   4,C  12,Ni  3,N  18)     97.8140         0.010000   
    409. D(N   4,C  12,Ni  3,C  19)     64.3989         0.010000   
    410. D(H  44,C  13,C  12,N   4)      4.3290         0.026592   
    411. D(H  44,C  13,C  12,Ni  3)     24.7706         0.026592   
    412. D(C  14,C  13,C  12,C  17)     -0.6391         0.026592   
    413. D(C  14,C  13,C  12,N   4)   -175.5630         0.026592   
    414. D(C  14,C  13,C  12,Ni  3)   -155.1214         0.026592   
    415. D(H  45,C  14,C  13,C  12)   -179.5186         0.029428   
    416. D(C  15,C  14,C  13,H  44)   -179.0904         0.029428   
    417. D(C  15,C  14,C  13,C  12)      0.8009         0.029428   
    418. D(H  45,C  14,C  13,H  44)      0.5901         0.029428   
    419. D(H  46,C  15,C  14,H  45)      0.3785         0.027872   
    420. D(H  46,C  15,C  14,C  13)   -179.9427         0.027872   
    421. D(C  16,C  15,C  14,H  45)   -179.9660         0.027872   
    422. D(C  16,C  15,C  14,C  13)     -0.2872         0.027872   
    423. D(C  17,C  16,C  15,H  46)    179.2862         0.027973   
    424. D(C  17,C  16,C  15,C  14)     -0.3695         0.027973   
    425. D(H  47,C  16,C  15,H  46)      0.4857         0.027973   
    426. D(H  47,C  16,C  15,C  14)   -179.1700         0.027973   
    427. D(H  48,C  17,C  16,H  47)      1.4243         0.029496   
    428. D(C  12,C  17,C  16,H  47)    179.3209         0.029496   
    429. D(C  12,C  17,C  16,C  15)      0.5195         0.029496   
    430. D(H  48,C  17,C  12,N   4)     -7.0487         0.026357   
    431. D(H  48,C  17,C  12,Ni  3)    -11.8643         0.026357   
    432. D(C  16,C  17,C  12,C  13)     -0.0152         0.026357   
    433. D(H  48,C  17,C  16,C  15)   -177.3771         0.029496   
    434. D(C  16,C  17,C  12,N   4)    174.9877         0.026357   
    435. D(C  16,C  17,C  12,Ni  3)    170.1721         0.026357   
    436. D(C  20,N  18,Ni  3,C  19)   -114.1241         0.010000   
    437. D(C  20,N  18,Ni  3,C  12)    139.9788         0.010000   
    438. D(C  20,N  18,Ni  3,C   5)   -173.5760         0.010000   
    439. D(C  20,N  18,Ni  3,C   1)   -160.6500         0.010000   
    440. D(C  19,N  18,Ni  3,C  24)    131.1068         0.010000   
    441. D(C  19,N  18,Ni  3,N  22)     99.8633         0.010000   
    442. D(C  19,N  18,Ni  3,C  21)     93.9540         0.010000   
    443. D(C  19,N  18,Ni  3,C  20)    114.1241         0.010000   
    444. D(C  19,N  18,Ni  3,C  12)   -105.8971         0.010000   
    445. D(C  19,N  18,Ni  3,C   5)    -59.4519         0.010000   
    446. D(C  19,N  18,Ni  3,N   4)    -79.4130         0.010000   
    447. D(C  20,N  18,Ni  3,N   4)    166.4629         0.010000   
    448. D(C  19,N  18,Ni  3,C   1)    -46.5259         0.010000   
    449. D(C  31,N  18,O   2,C   1)     69.7250         0.010000   
    450. D(C  20,N  18,O   2,C   1)   -162.3228         0.010000   
    451. D(C  20,N  18,Ni  3,C  21)    -20.1701         0.010000   
    452. D(C  19,N  18,O   2,C   1)    -48.4337         0.010000   
    453. D(H  50,C  19,N  18,C  31)     67.4760         0.016063   
    454. D(H  50,C  19,N  18,C  20)    -50.2046         0.016063   
    455. D(H  49,C  19,N  18,C  31)   -171.5298         0.016063   
    456. D(H  49,C  19,N  18,C  20)     70.7897         0.016063   
    457. D(H  49,C  19,N  18,Ni  3)    -42.2236         0.016063   
    458. D(Ni  3,C  19,N  18,C  20)    113.0133         0.016063   
    459. D(H  49,C  19,Ni  3,C  12)   -144.3822         0.010000   
    460. D(H  49,C  19,Ni  3,C   5)    -90.5450         0.010000   
    461. D(H  49,C  19,Ni  3,N   4)   -120.3889         0.010000   
    462. D(H  49,C  19,Ni  3,O   2)    -41.2442         0.010000   
    463. D(H  49,C  19,Ni  3,C   1)    -64.8827         0.010000   
    464. D(N  18,C  19,Ni  3,C  24)    -59.4193         0.010000   
    465. D(N  18,C  19,Ni  3,N  22)    -81.6059         0.010000   
    466. D(N  18,C  19,Ni  3,C  21)    -68.8749         0.010000   
    467. D(Ni  3,C  19,N  18,C  31)   -129.3061         0.016063   
    468. D(N  18,C  19,Ni  3,C  20)    -35.3291         0.010000   
    469. D(N  18,C  19,Ni  3,C  12)     76.0576         0.010000   
    470. D(N  18,C  19,Ni  3,C   5)    129.8948         0.010000   
    471. D(H  50,C  19,N  18,Ni  3)   -163.2179         0.016063   
    472. D(N  18,C  19,Ni  3,N   4)    100.0508         0.010000   
    473. D(N  18,C  19,Ni  3,O   2)    179.1955         0.010000   
    474. D(N  18,C  19,Ni  3,C   1)    155.5570         0.010000   
    475. D(H  52,C  20,N  18,C  19)    168.6199         0.016471   
    476. D(H  52,C  20,N  18,Ni  3)    -84.4876         0.016471   
    477. D(C  21,C  20,N  18,C  31)    170.1417         0.016471   
    478. D(C  21,C  20,N  18,C  19)    -72.0069         0.016471   
    479. D(C  21,C  20,N  18,Ni  3)     34.8856         0.016471   
    480. D(Ni  3,C  20,N  18,C  31)    135.2560         0.016471   
    481. D(Ni  3,C  20,N  18,C  19)   -106.8925         0.016471   
    482. D(C  21,C  20,Ni  3,C  12)    170.2543         0.010000   
    483. D(C  21,C  20,Ni  3,C   5)   -135.0086         0.010000   
    484. D(C  21,C  20,Ni  3,N   4)   -161.9420         0.010000   
    485. D(C  21,C  20,Ni  3,O   2)     30.7627         0.010000   
    486. D(C  21,C  20,Ni  3,C   1)    -36.0249         0.010000   
    487. D(N  18,C  20,Ni  3,C  24)   -162.1724         0.010000   
    488. D(N  18,C  20,Ni  3,N  22)    163.4407         0.010000   
    489. D(N  18,C  20,Ni  3,C  21)    145.9038         0.010000   
    490. D(N  18,C  20,Ni  3,C  19)     39.8180         0.010000   
    491. D(N  18,C  20,Ni  3,C  12)    -43.8420         0.010000   
    492. D(N  18,C  20,Ni  3,C   5)     10.8952         0.010000   
    493. D(N  18,C  20,Ni  3,N   4)    -16.0382         0.010000   
    494. D(N  18,C  20,Ni  3,O   2)    176.6664         0.010000   
    495. D(H  52,C  20,N  18,C  31)     50.7684         0.016471   
    496. D(N  18,C  20,Ni  3,C   1)    109.8789         0.010000   
    497. D(H  54,C  21,C  20,Ni  3)   -143.4356         0.013365   
    498. D(N  22,C  21,C  20,H  53)   -165.9517         0.013365   
    499. D(N  22,C  21,C  20,N  18)    -43.4748         0.013365   
    500. D(N  22,C  21,C  20,Ni  3)    -20.5725         0.013365   
    501. D(Ni  3,C  21,C  20,H  53)   -145.3792         0.013365   
    502. D(Ni  3,C  21,C  20,N  18)    -22.9023         0.013365   
    503. D(N  22,C  21,Ni  3,C  12)    133.5506         0.010000   
    504. D(N  22,C  21,Ni  3,C   5)   -100.3572         0.010000   
    505. D(N  22,C  21,Ni  3,N   4)   -177.8091         0.010000   
    506. D(N  22,C  21,Ni  3,O   2)    -14.1197         0.010000   
    507. D(N  22,C  21,Ni  3,C   1)    -40.0670         0.010000   
    508. D(C  20,C  21,Ni  3,C  24)   -112.7460         0.010000   
    509. D(C  20,C  21,Ni  3,N  22)   -148.7994         0.010000   
    510. D(C  20,C  21,Ni  3,C  19)     57.0843         0.010000   
    511. D(Ni  3,C  21,C  20,H  52)     95.2653         0.013365   
    512. D(C  20,C  21,Ni  3,N  18)     19.3835         0.010000   
    513. D(C  20,C  21,Ni  3,C  12)    -15.2488         0.010000   
    514. D(C  20,C  21,Ni  3,C   5)    110.8434         0.010000   
    515. D(N  22,C  21,C  20,H  52)     74.6927         0.013365   
    516. D(C  20,C  21,Ni  3,N   4)     33.3915         0.010000   
    517. D(C  20,C  21,Ni  3,O   2)   -162.9191         0.010000   
    518. D(C  20,C  21,Ni  3,C   1)    171.1337         0.010000   
    519. D(C  24,N  22,C  21,Ni  3)   -114.5714         0.016852   
    520. D(C  23,N  22,C  21,H  55)     37.4400         0.016852   
    521. D(C  23,N  22,C  21,C  20)    156.4051         0.016852   
    522. D(C  23,N  22,C  21,Ni  3)    125.0177         0.016852   
    523. D(Ni  3,N  22,C  21,H  55)    -87.5777         0.016852   
    524. D(Ni  3,N  22,C  21,H  54)    154.0928         0.016852   
    525. D(Ni  3,N  22,C  21,C  20)     31.3874         0.016852   
    526. D(C  24,N  22,N   4,C  12)     26.1556         0.010000   
    527. D(C  24,N  22,N   4,C   5)   -105.6210         0.010000   
    528. D(C  23,N  22,N   4,C   5)     13.1210         0.010000   
    529. D(C  21,N  22,N   4,C  12)    -93.2395         0.010000   
    530. D(C  21,N  22,N   4,C   5)    134.9839         0.010000   
    531. D(C  23,N  22,Ni  3,C  19)    -97.9247         0.010000   
    532. D(C  23,N  22,Ni  3,N  18)   -132.0637         0.010000   
    533. D(C  23,N  22,Ni  3,C  12)    141.8977         0.010000   
    534. D(C  23,N  22,Ni  3,C   5)     13.9600         0.010000   
    535. D(C  23,N  22,N   4,C  12)    144.8976         0.010000   
    536. D(C  23,N  22,Ni  3,O   2)     46.0299         0.010000   
    537. D(C  23,N  22,Ni  3,C   1)     30.9249         0.010000   
    538. D(C  21,N  22,Ni  3,C  24)   -118.9540         0.010000   
    539. D(C  21,N  22,Ni  3,C  20)    -18.6023         0.010000   
    540. D(C  21,N  22,Ni  3,C  19)     23.9323         0.010000   
    541. D(C  21,N  22,Ni  3,N  18)    -10.2068         0.010000   
    542. D(C  21,N  22,Ni  3,C  12)    -96.2454         0.010000   
    543. D(C  23,N  22,C  21,H  54)    -80.8895         0.016852   
    544. D(C  21,N  22,Ni  3,C   5)    135.8170         0.010000   
    545. D(C  21,N  22,Ni  3,O   2)    167.8868         0.010000   
    546. D(C  21,N  22,Ni  3,C   1)    152.7819         0.010000   
    547. D(H  57,C  23,N  22,C  24)    -65.7311         0.015803   
    548. D(H  57,C  23,N  22,C  21)     55.7002         0.015803   
    549. D(H  57,C  23,N  22,Ni  3)    178.1320         0.015803   
    550. D(H  56,C  23,N  22,C  24)    173.8583         0.015803   
    551. D(H  56,C  23,N  22,C  21)    -64.7105         0.015803   
    552. D(H  56,C  23,N  22,Ni  3)     57.7213         0.015803   
    553. D(H  58,C  23,N  22,Ni  3)    -60.3497         0.015803   
    554. D(H  59,C  24,N  22,C  23)    -62.0973         0.014506   
    555. D(H  59,C  24,N  22,C  21)    178.0194         0.014506   
    556. D(H  59,C  24,N  22,Ni  3)     60.0925         0.014506   
    557. D(C  25,C  24,N  22,C  23)     59.5697         0.014506   
    558. D(C  25,C  24,N  22,C  21)    -60.3136         0.014506   
    559. D(C  25,C  24,N  22,Ni  3)   -178.2405         0.014506   
    560. D(Ni  3,C  24,N  22,C  23)   -122.1898         0.014506   
    561. D(Ni  3,C  24,N  22,C  21)    117.9269         0.014506   
    562. D(C  25,C  24,Ni  3,C  12)   -164.1422         0.010000   
    563. D(C  25,C  24,Ni  3,C   5)    125.4115         0.010000   
    564. D(C  25,C  24,Ni  3,N   4)   -179.3998         0.010000   
    565. D(C  25,C  24,Ni  3,O   2)    109.2835         0.010000   
    566. D(C  25,C  24,Ni  3,C   1)    109.2912         0.010000   
    567. D(N  22,C  24,Ni  3,C  21)    -33.2217         0.010000   
    568. D(N  22,C  24,Ni  3,C  20)    -64.6754         0.010000   
    569. D(N  22,C  24,Ni  3,C  19)    -44.1366         0.010000   
    570. D(N  22,C  24,Ni  3,N  18)    -73.8284         0.010000   
    571. D(N  22,C  24,Ni  3,C  12)   -168.4709         0.010000   
    572. D(N  22,C  24,Ni  3,C   5)    121.0829         0.010000   
    573. D(N  22,C  24,Ni  3,N   4)    176.2715         0.010000   
    574. D(N  22,C  24,Ni  3,O   2)    104.9549         0.010000   
    575. D(N  22,C  24,Ni  3,C   1)    104.9625         0.010000   
    576. D(C  30,C  25,C  24,N  22)    -88.0090         0.013019   
    577. D(C  30,C  25,C  24,Ni  3)    -91.2829         0.013019   
    578. D(C  26,C  25,C  24,H  60)    -28.5986         0.013019   
    579. D(C  26,C  25,C  24,H  59)   -147.0983         0.013019   
    580. D(C  26,C  25,C  24,N  22)     92.8202         0.013019   
    581. D(C  26,C  25,C  24,Ni  3)     89.5463         0.013019   
    582. D(H  61,C  26,C  25,C  30)   -177.2476         0.026796   
    583. D(H  61,C  26,C  25,C  24)      1.9397         0.026796   
    584. D(C  27,C  26,C  25,C  30)      1.5273         0.026796   
    585. D(C  27,C  26,C  25,C  24)   -179.2853         0.026796   
    586. D(H  62,C  27,C  26,H  61)     -1.2522         0.028287   
    587. D(H  62,C  27,C  26,C  25)    179.9646         0.028287   
    588. D(C  28,C  27,C  26,H  61)    178.4340         0.028287   
    589. D(C  28,C  27,C  26,C  25)     -0.3491         0.028287   
    590. D(H  63,C  28,C  27,H  62)     -0.3494         0.028364   
    591. D(H  63,C  28,C  27,C  26)    179.9655         0.028364   
    592. D(C  29,C  28,C  27,H  62)    178.8237         0.028364   
    593. D(C  29,C  28,C  27,C  26)     -0.8614         0.028364   
    594. D(H  64,C  29,C  28,H  63)      0.3538         0.028164   
    595. D(H  64,C  29,C  28,C  27)   -178.8187         0.028164   
    596. D(C  30,C  29,C  28,H  63)   -179.9597         0.028164   
    597. D(C  30,C  29,C  28,C  27)      0.8678         0.028164   
    598. D(H  65,C  30,C  29,H  64)      0.8723         0.028470   
    599. D(H  65,C  30,C  29,C  28)   -178.8150         0.028470   
    600. D(C  25,C  30,C  29,H  64)   -179.9752         0.028470   
    601. D(C  25,C  30,C  29,C  28)      0.3375         0.028470   
    602. D(H  65,C  30,C  25,C  26)    177.6328         0.026842   
    603. D(H  65,C  30,C  25,C  24)     -1.5553         0.026842   
    604. D(C  29,C  30,C  25,C  26)     -1.5203         0.026842   
    605. D(C  29,C  30,C  25,C  24)    179.2916         0.026842   
    606. D(H  67,C  31,N  18,Ni  3)     62.5706         0.013910   
    607. D(H  66,C  31,N  18,C  20)    179.6789         0.013910   
    608. D(H  66,C  31,N  18,C  19)     61.0331         0.013910   
    609. D(H  66,C  31,N  18,Ni  3)    -53.2377         0.013910   
    610. D(C  32,C  31,N  18,C  20)     57.7244         0.013910   
    611. D(C  32,C  31,N  18,C  19)    -60.9213         0.013910   
    612. D(C  32,C  31,N  18,Ni  3)   -175.1922         0.013910   
    613. D(C  37,C  32,C  31,H  66)    147.5822         0.012068   
    614. D(C  37,C  32,C  31,N  18)    -91.4176         0.012068   
    615. D(C  33,C  32,C  31,H  67)   -148.6504         0.012068   
    616. D(C  33,C  32,C  31,H  66)    -30.9550         0.012068   
    617. D(C  33,C  32,C  31,N  18)     90.0452         0.012068   
    618. D(H  68,C  33,C  32,C  37)   -177.4841         0.026854   
    619. D(H  68,C  33,C  32,C  31)      1.0895         0.026854   
    620. D(C  34,C  33,C  32,C  37)      1.5775         0.026854   
    621. D(C  34,C  33,C  32,C  31)   -179.8490         0.026854   
    622. D(H  69,C  34,C  33,H  68)     -0.9916         0.028394   
    623. D(H  69,C  34,C  33,C  32)    179.9463         0.028394   
    624. D(C  35,C  34,C  33,H  68)    178.6242         0.028394   
    625. D(C  35,C  34,C  33,C  32)     -0.4379         0.028394   
    626. D(H  70,C  35,C  34,H  69)     -0.3628         0.028254   
    627. D(H  70,C  35,C  34,C  33)   -179.9776         0.028254   
    628. D(C  36,C  35,C  34,H  69)    178.8132         0.028254   
    629. D(C  36,C  35,C  34,C  33)     -0.8016         0.028254   
    630. D(H  71,C  36,C  35,H  70)      0.3664         0.028299   
    631. D(H  71,C  36,C  35,C  34)   -178.8100         0.028299   
    632. D(C  37,C  36,C  35,H  70)   -179.9545         0.028299   
    633. D(C  37,C  36,C  35,C  34)      0.8691         0.028299   
    634. D(H  72,C  37,C  36,H  71)      0.8961         0.028384   
    635. D(H  72,C  37,C  36,C  35)   -178.7839         0.028384   
    636. D(C  32,C  37,C  36,H  71)    179.9815         0.028384   
    637. D(C  32,C  37,C  36,C  35)      0.3015         0.028384   
    638. D(H  72,C  37,C  32,C  33)    177.5716         0.026880   
    639. D(H  72,C  37,C  32,C  31)     -0.9961         0.026880   
    640. D(C  36,C  37,C  32,C  33)     -1.5100         0.026880   
    641. D(C  36,C  37,C  32,C  31)    179.9223         0.026880   
    -----------------------------------------------------------------

Number of atoms                         .... 73
Number of degrees of freedom            .... 641


         *************************************************************
         *                GEOMETRY OPTIMIZATION CYCLE   1            *
         *************************************************************
---------------------------------
CARTESIAN COORDINATES (ANGSTROEM)
---------------------------------
  O     -1.064211   -8.142010   -5.177046
  C     -0.345160   -7.172440   -5.073179
  O     -0.757592   -5.998019   -4.719333
  Ni     0.576447   -4.929227   -4.107342
  N      1.700672   -5.842126   -5.266468
  C      1.194668   -7.238364   -5.340975
  C      1.426998   -7.962423   -6.633667
  C      0.760913   -7.562998   -7.787944
  C      0.954711   -8.237423   -8.977974
  C      1.810448   -9.324952   -9.031323
  C      2.464789   -9.739043   -7.884644
  C      2.273943   -9.061232   -6.693565
  C      1.980332   -5.213926   -6.467025
  C      3.013336   -5.653043   -7.308383
  C      3.328641   -4.953379   -8.454339
  C      2.647296   -3.794996   -8.793796
  C      1.630779   -3.340175   -7.969257
  C      1.299582   -4.040517   -6.828561
  N      1.993219   -3.872863   -3.443235
  C      2.589818   -4.849119   -2.509439
  C      1.413076   -2.752540   -2.682157
  C      0.153517   -3.231608   -1.979020
  N     -0.611027   -4.050221   -2.931456
  C     -1.482054   -4.960530   -2.172658
  C     -1.444044   -3.196249   -3.825504
  C     -2.468434   -2.338425   -3.126687
  C     -2.167288   -1.032108   -2.755001
  C     -3.102089   -0.248754   -2.100339
  C     -4.356011   -0.759522   -1.814135
  C     -4.675628   -2.050011   -2.201570
  C     -3.740367   -2.831818   -2.855685
  C      3.075837   -3.331033   -4.308911
  C      4.178108   -2.606142   -3.576177
  C      5.298357   -3.294851   -3.123123
  C      6.310376   -2.635443   -2.448034
  C      6.222823   -1.272384   -2.222436
  C      5.125289   -0.570877   -2.690666
  C      4.114056   -1.233126   -3.364242
  H      1.645771   -7.810112   -4.514321
  H      0.084043   -6.722330   -7.747150
  H      0.432753   -7.916029   -9.867605
  H      1.961246   -9.852439   -9.962251
  H      3.126309  -10.593396   -7.917124
  H      2.787553   -9.390047   -5.800317
  H      3.563410   -6.545185   -7.050878
  H      4.123187   -5.314779   -9.091591
  H      2.901751   -3.255645   -9.693746
  H      1.082811   -2.444859   -8.230523
  H      0.470427   -3.716826   -6.189794
  H      1.815702   -5.383948   -1.954381
  H      3.255287   -4.353298   -1.793322
  H      3.157632   -5.579871   -3.083797
  H      1.165063   -1.957199   -3.388923
  H      2.133553   -2.352271   -1.956442
  H     -0.439191   -2.389588   -1.602405
  H      0.424001   -3.849496   -1.119699
  H     -0.871396   -5.660196   -1.599426
  H     -2.128343   -4.408299   -1.482014
  H     -2.091272   -5.539598   -2.864101
  H     -1.948852   -3.873074   -4.521115
  H     -0.770832   -2.547795   -4.396387
  H     -1.199574   -0.611553   -2.995183
  H     -2.851271    0.763307   -1.818497
  H     -5.085613   -0.149589   -1.303095
  H     -5.658701   -2.447522   -1.998077
  H     -4.004164   -3.830193   -3.171326
  H      3.502121   -4.167673   -4.863019
  H      2.614619   -2.653939   -5.031605
  H      5.386937   -4.354219   -3.313427
  H      7.172561   -3.186300   -2.102649
  H      7.011987   -0.756905   -1.696171
  H      5.058204    0.495847   -2.535855
  H      3.272056   -0.670462   -3.741993

----------------------------
CARTESIAN COORDINATES (A.U.)
----------------------------
  NO LB      ZA    FRAG     MASS         X           Y           Z
   0 O     8.0000    0    15.999   -2.011067  -15.386169   -9.783199
   1 C     6.0000    0    12.011   -0.652258  -13.553947   -9.586919
   2 O     8.0000    0    15.999   -1.431641  -11.334613   -8.918247
   3 Ni   28.0000    0    58.700    1.089327   -9.314889   -7.761752
   4 N     7.0000    0    14.007    3.213804  -11.040018   -9.952182
   5 C     6.0000    0    12.011    2.257595  -13.678526  -10.092980
   6 C     6.0000    0    12.011    2.696635  -15.046799  -12.535814
   7 C     6.0000    0    12.011    1.437917  -14.291995  -14.717081
   8 C     6.0000    0    12.011    1.804142  -15.566474  -16.965912
   9 C     6.0000    0    12.011    3.421251  -17.621605  -17.066727
  10 C     6.0000    0    12.011    4.657776  -18.404124  -14.899818
  11 C     6.0000    0    12.011    4.297130  -17.123247  -12.649005
  12 C     6.0000    0    12.011    3.742285   -9.852892  -12.220906
  13 C     6.0000    0    12.011    5.694380  -10.682703  -13.810842
  14 C     6.0000    0    12.011    6.290220   -9.360530  -15.976385
  15 C     6.0000    0    12.011    5.002664   -7.171503  -16.617866
  16 C     6.0000    0    12.011    3.081726   -6.312016  -15.059713
  17 C     6.0000    0    12.011    2.455854   -7.635471  -12.904110
  18 N     7.0000    0    14.007    3.766638   -7.318650   -6.506771
  19 C     6.0000    0    12.011    4.894047   -9.163507   -4.742152
  20 C     6.0000    0    12.011    2.670327   -5.201547   -5.068542
  21 C     6.0000    0    12.011    0.290105   -6.106854   -3.739806
  22 N     7.0000    0    14.007   -1.154674   -7.653808   -5.539649
  23 C     6.0000    0    12.011   -2.800676   -9.374043   -4.105729
  24 C     6.0000    0    12.011   -2.728848   -6.040035   -7.229155
  25 C     6.0000    0    12.011   -4.664664   -4.418983   -5.908582
  26 C     6.0000    0    12.011   -4.095581   -1.950401   -5.206197
  27 C     6.0000    0    12.011   -5.862099   -0.470077   -3.969065
  28 C     6.0000    0    12.011   -8.231668   -1.435289   -3.428218
  29 C     6.0000    0    12.011   -8.835656   -3.873959   -4.160364
  30 C     6.0000    0    12.011   -7.068269   -5.351360   -5.396463
  31 C     6.0000    0    12.011    5.812490   -6.294740   -8.142662
  32 C     6.0000    0    12.011    7.895480   -4.924895   -6.757995
  33 C     6.0000    0    12.011   10.012444   -6.226366   -5.901847
  34 C     6.0000    0    12.011   11.924882   -4.980266   -4.626114
  35 C     6.0000    0    12.011   11.759431   -2.404457   -4.199795
  36 C     6.0000    0    12.011    9.685393   -1.078801   -5.084622
  37 C     6.0000    0    12.011    7.774439   -2.330270   -6.357496
  38 H     1.0000    0     1.008    3.110056  -14.758973   -8.530830
  39 H     1.0000    0     1.008    0.158818  -12.703363  -14.639992
  40 H     1.0000    0     1.008    0.817785  -14.959127  -18.647071
  41 H     1.0000    0     1.008    3.706218  -18.618411  -18.825926
  42 H     1.0000    0     1.008    5.907868  -20.018617  -14.961196
  43 H     1.0000    0     1.008    5.267712  -17.744617  -10.961011
  44 H     1.0000    0     1.008    6.733869  -12.368607  -13.324228
  45 H     1.0000    0     1.008    7.791694  -10.043477  -17.180617
  46 H     1.0000    0     1.008    5.483515   -6.152277  -18.318525
  47 H     1.0000    0     1.008    2.046216   -4.620114  -15.553434
  48 H     1.0000    0     1.008    0.888978   -7.023783  -11.697015
  49 H     1.0000    0     1.008    3.431180  -10.174187   -3.693245
  50 H     1.0000    0     1.008    6.151601   -8.226541   -3.388887
  51 H     1.0000    0     1.008    5.967060  -10.544428   -5.827532
  52 H     1.0000    0     1.008    2.201650   -3.698570   -6.404136
  53 H     1.0000    0     1.008    4.031831   -4.445148   -3.697140
  54 H     1.0000    0     1.008   -0.829951   -4.515667   -3.028107
  55 H     1.0000    0     1.008    0.801246   -7.274493   -2.115924
  56 H     1.0000    0     1.008   -1.646700  -10.696220   -3.022477
  57 H     1.0000    0     1.008   -4.021985   -8.330478   -2.800601
  58 H     1.0000    0     1.008   -3.951931  -10.468323   -5.412367
  59 H     1.0000    0     1.008   -3.682797   -7.319049   -8.543669
  60 H     1.0000    0     1.008   -1.456661   -4.814635   -8.307967
  61 H     1.0000    0     1.008   -2.266866   -1.155668   -5.660076
  62 H     1.0000    0     1.008   -5.388121    1.442441   -3.436461
  63 H     1.0000    0     1.008   -9.610416   -0.282682   -2.462493
  64 H     1.0000    0     1.008  -10.693395   -4.625146   -3.775818
  65 H     1.0000    0     1.008   -7.566773   -7.238016   -5.992938
  66 H     1.0000    0     1.008    6.618050   -7.875761   -9.189774
  67 H     1.0000    0     1.008    4.940914   -5.015218   -9.508355
  68 H     1.0000    0     1.008   10.179836   -8.228281   -6.261470
  69 H     1.0000    0     1.008   13.554176   -6.021234   -3.973431
  70 H     1.0000    0     1.008   13.250735   -1.430343   -3.205299
  71 H     1.0000    0     1.008    9.558620    0.937015   -4.792071
  72 H     1.0000    0     1.008    6.183290   -1.266990   -7.071342

--------------------------------
INTERNAL COORDINATES (ANGSTROEM)
--------------------------------
 O      0   0   0     0.000000000000     0.00000000     0.00000000
 C      1   0   0     1.211564558408     0.00000000     0.00000000
 O      2   1   0     1.294052484091   124.09519252     0.00000000
 Ni     3   2   1     1.815629195862   113.09359142   160.08075126
 N      4   3   2     1.854950004367    86.84579081    30.78021772
 C      5   4   3     1.486967347896   106.68943316   327.19161602
 C      6   5   4     1.499763738475   116.34644910   149.90142915
 C      7   6   5     1.391245826797   120.15535744   291.82174660
 C      8   7   6     1.381512991734   120.48806822   180.96136356
 C      9   8   7     1.384865067366   120.21391121     0.36302285
 C     10   9   8     1.383656832312   119.69031347     0.40991992
 C     11  10   9     1.383661494614   120.10286471   359.39528329
 C      5   4   3     1.383539687125   116.18594691    99.48123500
 C     13   5   4     1.402784476628   121.81440998   166.83972659
 C     14  13   5     1.379188931893   120.52403831   184.43699633
 C     15  14  13     1.386114439202   121.00156798     0.80089747
 C     16  15  14     1.385652739993   119.28687758   359.71282211
 C     17  16  15     1.378897289209   120.11603363   359.63050862
 N      4   3   2     1.887905163913   177.92586626   324.64342854
 C     19   4   3     1.476814515758    98.95736654   346.63323896
 C     19   4   3     1.473407359443   108.16028827   232.50911101
 C     21  19   4     1.519998902590   109.00055207    34.88562527
 N     22  21  19     1.470302385838   107.86142881   316.52518653
 C     23  22  21     1.470756579116   108.56329663   156.40513022
 C     23  22  21     1.490807608438   111.10667937   276.81594309
 C     25  23  22     1.507840205912   115.31292505   299.68635697
 C     26  25  23     1.391151861013   120.72881884    92.82018210
 C     27  26  25     1.384224957570   120.76888698   180.71472817
 C     28  27  26     1.383877545711   120.05608183   359.65086627
 C     29  28  27     1.384782569588   119.68444155   359.13856411
 C     30  29  28     1.383402239623   120.19218175     0.86784926
 C     19   4   3     1.488299842035   123.02386109   105.46818154
 C     32  19   4     1.509094905590   115.07324200   184.80782825
 C     33  32  19     1.390875923869   120.57106920    90.04518918
 C     34  33  32     1.383743662947   120.79788796   180.15104749
 C     35  34  33     1.384373440548   120.16233372   359.56205963
 C     36  35  34     1.384172057623   119.60547540   359.19835740
 C     37  36  35     1.383788475912   120.10291967     0.86906284
 H      6   5   4     1.101701651006   108.08147322   273.42772866
 H      8   7   6     1.080064735819   119.48318031     0.61517965
 H      9   8   7     1.080359927599   119.75700242   180.11062824
 H     10   9   8     1.080559814706   120.18365460   179.96606417
 H     11  10   9     1.081010041308   120.06734124   179.37458129
 H     12  11  10     1.081575945474   119.76890811   179.95231190
 H     14  13   5     1.079262516103   119.40497762     4.32901011
 H     15  14  13     1.080742068035   119.23305453   180.48140105
 H     16  15  14     1.079609582546   120.38389632   180.05732240
 H     17  16  15     1.081720662480   119.97169768   180.83001047
 H     18  17  16     1.095580739971   120.93337150   182.62292147
 H     20  19   4     1.092422548312   111.01701122   317.77636931
 H     20  19   4     1.096134577363   111.05898676   196.78213536
 H     20  19   4     1.089173235194   108.70439603    76.42476578
 H     21  19   4     1.092518161499   107.98449175   275.51236764
 H     21  19   4     1.098164214093   111.11086319   157.09147272
 H     22  21  19     1.096421138016   111.39590641   193.66214692
 H     22  21  19     1.092419221655   109.69272899    74.96363755
 H     24  23  22     1.091343497870   109.65860703   295.28952304
 H     24  23  22     1.095279728479   111.26701545    55.70015391
 H     24  23  22     1.088374817054   109.45347056   177.21849849
 H     25  23  22     1.093982568787   106.54500131   178.01940017
 H     25  23  22     1.095269093305   107.95526633    61.56239077
 H     27  26  25     1.082138755865   119.94812853     1.93974281
 H     28  27  26     1.080098166746   119.79219114   179.96459999
 H     29  28  27     1.079582893757   120.11458994   179.96546936
 H     30  29  28     1.079748544569   120.03282034   181.18133717
 H     31  30  29     1.079801249636   119.70738039   181.18501700
 H     32  19   4     1.090284464679   107.49695445   306.76229895
 H     32  19   4     1.092458212471   107.65697770    62.57058694
 H     34  33  32     1.079964160628   119.62903529     1.08948932
 H     35  34  33     1.079859808910   119.79429009   179.94625821
 H     36  35  34     1.079561609433   120.22162133   180.02235248
 H     37  36  35     1.079984692078   120.08912768   181.18995532
 H     38  37  36     1.080856417336   119.35802743   181.21613226

---------------------------
INTERNAL COORDINATES (A.U.)
---------------------------
 O      0   0   0     0.000000000000     0.00000000     0.00000000
 C      1   0   0     2.289525208956     0.00000000     0.00000000
 O      2   1   0     2.445404797852   124.09519252     0.00000000
 Ni     3   2   1     3.431041940931   113.09359142   160.08075126
 N      4   3   2     3.505347500370    86.84579081    30.78021772
 C      5   4   3     2.809961057607   106.68943316   327.19161602
 C      6   5   4     2.834142731304   116.34644910   149.90142915
 C      7   6   5     2.629073597606   120.15535744   291.82174660
 C      8   7   6     2.610681204831   120.48806822   180.96136356
 C      9   8   7     2.617015709756   120.21391121     0.36302285
 C     10   9   8     2.614732476398   119.69031347     0.40991992
 C     11  10   9     2.614741286873   120.10286471   359.39528329
 C      5   4   3     2.614511104077   116.18594691    99.48123500
 C     13   5   4     2.650878485743   121.81440998   166.83972659
 C     14  13   5     2.606289368214   120.52403831   184.43699633
 C     15  14  13     2.619376680365   121.00156798     0.80089747
 C     16  15  14     2.618504195305   119.28687758   359.71282211
 C     17  16  15     2.605738243412   120.11603363   359.63050862
 N      4   3   2     3.567623726611   177.92586626   324.64342854
 C     19   4   3     2.790774985382    98.95736654   346.63323896
 C     19   4   3     2.784336393052   108.16028827   232.50911101
 C     21  19   4     2.872381649755   109.00055207    34.88562527
 N     22  21  19     2.778468843285   107.86142881   316.52518653
 C     23  22  21     2.779327144193   108.56329663   156.40513022
 C     23  22  21     2.817218098314   111.10667937   276.81594309
 C     25  23  22     2.849405042889   115.31292505   299.68635697
 C     26  25  23     2.628896028010   120.72881884    92.82018210
 C     27  26  25     2.615806077547   120.76888698   180.71472817
 C     28  27  26     2.615149564277   120.05608183   359.65086627
 C     29  28  27     2.616859811549   119.68444155   359.13856411
 C     30  29  28     2.614251365942   120.19218175     0.86784926
 C     19   4   3     2.812479106604   123.02386109   105.46818154
[...]
      dxz     :     0.013903
      dyz     :     0.007697
      dx2y2   :     0.028363
      dxy     :     0.023574

 34 C s       :     2.908757  s :     2.908757
      pz      :     0.992938  p :     3.169526
      px      :     1.081945
      py      :     1.094643
      dz2     :     0.007471  d :     0.081334
      dxz     :     0.008075
      dyz     :     0.013467
      dx2y2   :     0.025098
      dxy     :     0.027224

 35 C s       :     2.909416  s :     2.909416
      pz      :     0.993913  p :     3.170687
      px      :     1.082002
      py      :     1.094771
      dz2     :     0.005724  d :     0.081120
      dxz     :     0.009190
      dyz     :     0.013022
      dx2y2   :     0.025533
      dxy     :     0.027651

 36 C s       :     2.908633  s :     2.908633
      pz      :     0.994920  p :     3.171853
      px      :     1.078628
      py      :     1.098306
      dz2     :     0.008158  d :     0.081367
      dxz     :     0.013792
      dyz     :     0.007539
      dx2y2   :     0.027984
      dxy     :     0.023894

 37 C s       :     2.903625  s :     2.903625
      pz      :     1.005772  p :     3.173213
      px      :     1.086021
      py      :     1.081420
      dz2     :     0.007360  d :     0.081672
      dxz     :     0.008174
      dyz     :     0.013951
      dx2y2   :     0.024922
      dxy     :     0.027265

 38 H s       :     0.759695  s :     0.759695
      pz      :     0.021031  p :     0.040459
      px      :     0.008621
      py      :     0.010807

 39 H s       :     0.766125  s :     0.766125
      pz      :     0.007110  p :     0.045318
      px      :     0.022344
      py      :     0.015864

 40 H s       :     0.788676  s :     0.788676
      pz      :     0.025054  p :     0.043787
      px      :     0.010512
      py      :     0.008221

 41 H s       :     0.790840  s :     0.790840
      pz      :     0.019041  p :     0.043867
      px      :     0.011350
      py      :     0.013477

 42 H s       :     0.791123  s :     0.791123
      pz      :     0.007583  p :     0.043829
      px      :     0.020505
      py      :     0.015740

 43 H s       :     0.787245  s :     0.787245
      pz      :     0.025131  p :     0.043771
      px      :     0.010327
      py      :     0.008313

 44 H s       :     0.772924  s :     0.772924
      pz      :     0.009502  p :     0.044497
      px      :     0.015919
      py      :     0.019076

 45 H s       :     0.789097  s :     0.789097
      pz      :     0.012838  p :     0.043734
      px      :     0.022534
      py      :     0.008362

 46 H s       :     0.790702  s :     0.790702
      pz      :     0.021915  p :     0.044215
      px      :     0.008152
      py      :     0.014147

 47 H s       :     0.790792  s :     0.790792
      pz      :     0.009607  p :     0.043764
      px      :     0.016784
      py      :     0.017373

 48 H s       :     0.771344  s :     0.771344
      pz      :     0.014309  p :     0.047247
      px      :     0.024433
      py      :     0.008505

 49 H s       :     0.781822  s :     0.781822
      pz      :     0.013798  p :     0.041675
      px      :     0.017311
      py      :     0.010566

 50 H s       :     0.780342  s :     0.780342
      pz      :     0.013123  p :     0.042366
      px      :     0.018930
      py      :     0.010312

 51 H s       :     0.757261  s :     0.757261
      pz      :     0.016455  p :     0.042626
      px      :     0.009229
      py      :     0.016943

 52 H s       :     0.772480  s :     0.772480
      pz      :     0.015192  p :     0.041129
      px      :     0.008299
      py      :     0.017639

 53 H s       :     0.768138  s :     0.768138
      pz      :     0.016904  p :     0.041961
      px      :     0.016179
      py      :     0.008878

 54 H s       :     0.765327  s :     0.765327
      pz      :     0.011589  p :     0.043187
      px      :     0.012351
      py      :     0.019247

 55 H s       :     0.768611  s :     0.768611
      pz      :     0.015469  p :     0.041357
      px      :     0.007817
      py      :     0.018070

 56 H s       :     0.778522  s :     0.778522
      pz      :     0.010893  p :     0.040440
      px      :     0.012056
      py      :     0.017492

 57 H s       :     0.783183  s :     0.783183
      pz      :     0.016237  p :     0.041783
      px      :     0.013735
      py      :     0.011812

 58 H s       :     0.751956  s :     0.751956
      pz      :     0.020528  p :     0.043342
      px      :     0.012338
      py      :     0.010475

 59 H s       :     0.743306  s :     0.743306
      pz      :     0.017325  p :     0.042482
      px      :     0.010973
      py      :     0.014183

 60 H s       :     0.767768  s :     0.767768
      pz      :     0.011572  p :     0.041469
      px      :     0.018008
      py      :     0.011890

 61 H s       :     0.786625  s :     0.786625
      pz      :     0.008876  p :     0.043984
      px      :     0.025963
      py      :     0.009146

 62 H s       :     0.785352  s :     0.785352
      pz      :     0.010925  p :     0.044071
      px      :     0.009138
      py      :     0.024007

 63 H s       :     0.784771  s :     0.784771
      pz      :     0.013469  p :     0.044132
      px      :     0.015659
      py      :     0.015003

 64 H s       :     0.783847  s :     0.783847
      pz      :     0.008352  p :     0.044112
      px      :     0.026983
      py      :     0.008776

 65 H s       :     0.777758  s :     0.777758
      pz      :     0.011452  p :     0.044478
      px      :     0.009167
      py      :     0.023858

 66 H s       :     0.732076  s :     0.732076
      pz      :     0.013451  p :     0.044432
      px      :     0.008050
      py      :     0.022932

 67 H s       :     0.757414  s :     0.757414
      pz      :     0.015173  p :     0.041165
      px      :     0.012473
      py      :     0.013520

 68 H s       :     0.780334  s :     0.780334
      pz      :     0.009181  p :     0.044309
      px      :     0.007106
      py      :     0.028022

 69 H s       :     0.784988  s :     0.784988
      pz      :     0.009520  p :     0.044062
      px      :     0.022497
      py      :     0.012045

 70 H s       :     0.785380  s :     0.785380
      pz      :     0.012086  p :     0.044121
      px      :     0.019798
      py      :     0.012237

 71 H s       :     0.785824  s :     0.785824
      pz      :     0.008815  p :     0.044036
      px      :     0.007176
      py      :     0.028045

 72 H s       :     0.786254  s :     0.786254
      pz      :     0.010227  p :     0.044083
      px      :     0.021667
      py      :     0.012188



                      *****************************
                      * MAYER POPULATION ANALYSIS *
                      *****************************

  NA   - Mulliken gross atomic population
  ZA   - Total nuclear charge
  QA   - Mulliken gross atomic charge
  VA   - Mayer's total valence
  BVA  - Mayer's bonded valence
  FA   - Mayer's free valence

  ATOM       NA         ZA         QA         VA         BVA        FA
  0 O      8.3578     8.0000    -0.3578     2.0639     2.0639    -0.0000
  1 C      5.9406     6.0000     0.0594     4.2716     4.2716    -0.0000
  2 O      8.3887     8.0000    -0.3887     1.7843     1.7843    -0.0000
  3 Ni    27.4085    28.0000     0.5915     2.2944     2.2944     0.0000
  4 N      7.3227     7.0000    -0.3227     2.5745     2.5745     0.0000
  5 C      5.8879     6.0000     0.1121     3.3791     3.3791     0.0000
  6 C      5.9048     6.0000     0.0952     3.6261     3.6261     0.0000
  7 C      6.0907     6.0000    -0.0907     3.9191     3.9191    -0.0000
  8 C      6.2098     6.0000    -0.2098     3.8228     3.8228    -0.0000
  9 C      6.1447     6.0000    -0.1447     3.8182     3.8182    -0.0000
 10 C      6.1815     6.0000    -0.1815     3.8086     3.8086    -0.0000
 11 C      6.2550     6.0000    -0.2550     3.8534     3.8534    -0.0000
 12 C      5.9394     6.0000     0.0606     3.6810     3.6810     0.0000
 13 C      6.2577     6.0000    -0.2577     3.8582     3.8582     0.0000
 14 C      6.1559     6.0000    -0.1559     3.8006     3.8006     0.0000
 15 C      6.1657     6.0000    -0.1657     3.8004     3.8004     0.0000
 16 C      6.2103     6.0000    -0.2103     3.7613     3.7613     0.0000
 17 C      6.2029     6.0000    -0.2029     3.8547     3.8547     0.0000
 18 N      7.0935     7.0000    -0.0935     2.9338     2.9338    -0.0000
 19 C      6.3877     6.0000    -0.3877     3.7881     3.7881     0.0000
 20 C      6.2682     6.0000    -0.2682     3.6723     3.6723     0.0000
 21 C      6.3782     6.0000    -0.3782     3.7626     3.7626     0.0000
 22 N      7.1133     7.0000    -0.1133     2.8814     2.8814     0.0000
 23 C      6.4078     6.0000    -0.4078     3.7818     3.7818    -0.0000
 24 C      6.3671     6.0000    -0.3671     3.7573     3.7573    -0.0000
 25 C      5.8737     6.0000     0.1263     3.4191     3.4191     0.0000
 26 C      6.2203     6.0000    -0.2203     3.8738     3.8738     0.0000
 27 C      6.1624     6.0000    -0.1624     3.8483     3.8483     0.0000
 28 C      6.1337     6.0000    -0.1337     3.8277     3.8277    -0.0000
 29 C      6.1465     6.0000    -0.1465     3.8003     3.8003     0.0000
 30 C      6.1762     6.0000    -0.1762     3.8735     3.8735    -0.0000
 31 C      6.3898     6.0000    -0.3898     3.6638     3.6638     0.0000
 32 C      5.8939     6.0000     0.1061     3.4426     3.4426    -0.0000
 33 C      6.1930     6.0000    -0.1930     3.9166     3.9166    -0.0000
 34 C      6.1504     6.0000    -0.1504     3.8086     3.8086    -0.0000
 35 C      6.1358     6.0000    -0.1358     3.8314     3.8314     0.0000
 36 C      6.1575     6.0000    -0.1575     3.8357     3.8357    -0.0000
 37 C      6.1887     6.0000    -0.1887     3.8759     3.8759    -0.0000
 38 H      0.8485     1.0000     0.1515     0.9647     0.9647     0.0000
 39 H      0.8318     1.0000     0.1682     0.9580     0.9580     0.0000
 40 H      0.8550     1.0000     0.1450     0.9698     0.9698     0.0000
 41 H      0.8552     1.0000     0.1448     0.9696     0.9696    -0.0000
 42 H      0.8563     1.0000     0.1437     0.9707     0.9707    -0.0000
 43 H      0.8537     1.0000     0.1463     0.9702     0.9702    -0.0000
 44 H      0.8295     1.0000     0.1705     0.9608     0.9608     0.0000
 45 H      0.8537     1.0000     0.1463     0.9698     0.9698     0.0000
 46 H      0.8555     1.0000     0.1445     0.9707     0.9707     0.0000
 47 H      0.8551     1.0000     0.1449     0.9707     0.9707     0.0000
 48 H      0.8366     1.0000     0.1634     0.9643     0.9643     0.0000
 49 H      0.8468     1.0000     0.1532     0.9600     0.9600     0.0000
 50 H      0.8229     1.0000     0.1771     0.9496     0.9496     0.0000
 51 H      0.7923     1.0000     0.2077     0.9488     0.9488     0.0000
 52 H      0.8250     1.0000     0.1750     0.9439     0.9439     0.0000
 53 H      0.8133     1.0000     0.1867     0.9485     0.9485     0.0000
 54 H      0.8053     1.0000     0.1947     0.9489     0.9489     0.0000
 55 H      0.8185     1.0000     0.1815     0.9441     0.9441     0.0000
 56 H      0.8482     1.0000     0.1518     0.9608     0.9608     0.0000
 57 H      0.8290     1.0000     0.1710     0.9464     0.9464    -0.0000
 58 H      0.7836     1.0000     0.2164     0.9459     0.9459    -0.0000
 59 H      0.7655     1.0000     0.2345     0.9298     0.9298    -0.0000
 60 H      0.8130     1.0000     0.1870     0.9475     0.9475    -0.0000
 61 H      0.8500     1.0000     0.1500     0.9659     0.9659     0.0000
 62 H      0.8500     1.0000     0.1500     0.9684     0.9684     0.0000
 63 H      0.8478     1.0000     0.1522     0.9671     0.9671    -0.0000
 64 H      0.8478     1.0000     0.1522     0.9675     0.9675    -0.0000
 65 H      0.8434     1.0000     0.1566     0.9652     0.9652    -0.0000
 66 H      0.7653     1.0000     0.2347     0.9394     0.9394     0.0000
 67 H      0.7870     1.0000     0.2130     0.9386     0.9386    -0.0000
 68 H      0.8470     1.0000     0.1530     0.9656     0.9656     0.0000
 69 H      0.8496     1.0000     0.1504     0.9681     0.9681     0.0000
 70 H      0.8485     1.0000     0.1515     0.9674     0.9674     0.0000
 71 H      0.8508     1.0000     0.1492     0.9686     0.9686    -0.0000
 72 H      0.8563     1.0000     0.1437     0.9690     0.9690    -0.0000

  Mayer bond orders larger than 0.100000
B(  0-O ,  1-C ) :   2.0105 B(  1-C ,  2-O ) :   1.3383 B(  1-C ,  5-C ) :   0.8093 
B(  2-O ,  3-Ni) :   0.4689 B(  2-O ,  5-C ) :  -0.1446 B(  3-Ni,  4-N ) :   0.6889 
B(  3-Ni, 18-N ) :   0.3488 B(  3-Ni, 22-N ) :   0.3238 B(  4-N ,  5-C ) :   0.9015 
B(  4-N , 12-C ) :   0.7823 B(  5-C ,  6-C ) :   0.7896 B(  5-C , 38-H ) :   0.9555 
B(  6-C ,  7-C ) :   1.4286 B(  6-C , 11-C ) :   1.4026 B(  7-C ,  8-C ) :   1.4115 
B(  7-C , 39-H ) :   0.9367 B(  8-C ,  9-C ) :   1.4141 B(  8-C , 40-H ) :   0.9554 
B(  9-C , 10-C ) :   1.4234 B(  9-C , 41-H ) :   0.9463 B( 10-C , 11-C ) :   1.4009 
B( 10-C , 42-H ) :   0.9438 B( 11-C , 43-H ) :   0.9417 B( 12-C , 13-C ) :   1.3954 
B( 12-C , 17-C ) :   1.4229 B( 13-C , 14-C ) :   1.3803 B( 13-C , 44-H ) :   0.9334 
B( 14-C , 15-C ) :   1.3998 B( 14-C , 45-H ) :   0.9414 B( 15-C , 16-C ) :   1.4136 
B( 15-C , 46-H ) :   0.9491 B( 16-C , 17-C ) :   1.3748 B( 16-C , 47-H ) :   0.9474 
B( 17-C , 48-H ) :   0.9223 B( 18-N , 19-C ) :   0.8750 B( 18-N , 20-C ) :   0.8971 
B( 18-N , 31-C ) :   0.8533 B( 19-C , 49-H ) :   0.9434 B( 19-C , 50-H ) :   0.9471 
B( 19-C , 51-H ) :   0.9453 B( 20-C , 21-C ) :   0.8991 B( 20-C , 52-H ) :   0.9495 
B( 20-C , 53-H ) :   0.9496 B( 21-C , 22-N ) :   0.8733 B( 21-C , 54-H ) :   0.9631 
B( 21-C , 55-H ) :   0.9655 B( 22-N , 23-C ) :   0.9029 B( 22-N , 24-C ) :   0.8403 
B( 23-C , 56-H ) :   0.9471 B( 23-C , 57-H ) :   0.9499 B( 23-C , 58-H ) :   0.9350 
B( 24-C , 25-C ) :   0.7587 B( 24-C , 59-H ) :   0.9701 B( 24-C , 60-H ) :   0.9892 
B( 25-C , 26-C ) :   1.3485 B( 25-C , 30-C ) :   1.4100 B( 26-C , 27-C ) :   1.4365 
B( 26-C , 61-H ) :   0.9501 B( 27-C , 28-C ) :   1.4231 B( 27-C , 62-H ) :   0.9442 
B( 28-C , 29-C ) :   1.4104 B( 28-C , 63-H ) :   0.9473 B( 29-C , 30-C ) :   1.4131 
B( 29-C , 64-H ) :   0.9474 B( 30-C , 65-H ) :   0.9490 B( 31-C , 32-C ) :   0.7443 
B( 31-C , 66-H ) :   0.9631 B( 31-C , 67-H ) :   0.9874 B( 32-C , 33-C ) :   1.4288 
B( 32-C , 37-C ) :   1.3647 B( 33-C , 34-C ) :   1.4189 B( 33-C , 68-H ) :   0.9482 
B( 34-C , 35-C ) :   1.4179 B( 34-C , 69-H ) :   0.9481 B( 35-C , 36-C ) :   1.4190 
B( 35-C , 70-H ) :   0.9470 B( 36-C , 37-C ) :   1.4349 B( 36-C , 71-H ) :   0.9448 
B( 37-C , 72-H ) :   0.9455 

-------
TIMINGS
-------

Total SCF time: 0 days 0 hours 0 min 19 sec 

Total time                  ....      19.935 sec
Sum of individual times     ....      18.589 sec  ( 93.2%)

SCF preparation             ....       0.609 sec  (  3.1%)
Fock matrix formation       ....      15.510 sec  ( 77.8%)
  Startup                   ....       0.032 sec  (  0.2% of F)
  Split-RI-J                ....       5.458 sec  ( 35.2% of F)
  XC integration            ....      10.968 sec  ( 70.7% of F)
    Basis function eval.    ....       1.384 sec  ( 12.6% of XC)
    Density eval.           ....       4.679 sec  ( 42.7% of XC)
    XC-Functional eval.     ....       0.437 sec  (  4.0% of XC)
    XC-Potential eval.      ....       3.993 sec  ( 36.4% of XC)
Diagonalization             ....       0.000 sec  (  0.0%)
Density matrix formation    ....       0.159 sec  (  0.8%)
Total Energy calculation    ....       0.046 sec  (  0.2%)
Population analysis         ....       0.758 sec  (  3.8%)
Orbital Transformation      ....       0.157 sec  (  0.8%)
Orbital Orthonormalization  ....       0.000 sec  (  0.0%)
DIIS solution               ....       0.186 sec  (  0.9%)
SOSCF solution              ....       1.164 sec  (  5.8%)
Finished LeanSCF after  20.1 sec

Maximum memory used throughout the entire LEANSCF-calculation: 127.2 MB
[1769527337.495186] [node236:2514624:0]     ucp_context.c:1234 UCX  WARN  transport 'ib' is not available, please use one or more of: mm, posix, self, shm, sm, sysv, tcp
[1769527337.496629] [node236:2514593:0]     ucp_context.c:1234 UCX  WARN  transport 'ib' is not available, please use one or more of: mm, posix, self, shm, sm, sysv, tcp
[1769527337.503984] [node236:2514607:0]     ucp_context.c:1234 UCX  WARN  transport 'ib' is not available, please use one or more of: mm, posix, self, shm, sm, sysv, tcp
[1769527337.504443] [node236:2514614:0]     ucp_context.c:1234 UCX  WARN  transport 'ib' is not available, please use one or more of: mm, posix, self, shm, sm, sysv, tcp
[1769527337.505241] [node236:2514628:0]     ucp_context.c:1234 UCX  WARN  transport 'ib' is not available, please use one or more of: mm, posix, self, shm, sm, sysv, tcp
[1769527337.507128] [node236:2514619:0]     ucp_context.c:1234 UCX  WARN  transport 'ib' is not available, please use one or more of: mm, posix, self, shm, sm, sysv, tcp
[1769527337.515668] [node236:2514597:0]     ucp_context.c:1234 UCX  WARN  transport 'ib' is not available, please use one or more of: mm, posix, self, shm, sm, sysv, tcp
[1769527337.516941] [node236:2514601:0]     ucp_context.c:1234 UCX  WARN  transport 'ib' is not available, please use one or more of: mm, posix, self, shm, sm, sysv, tcp


           ************************************************************
           *        Program running with 8 parallel MPI-processes     *
           *              working on a common directory               *
           ************************************************************

------------------------------------------------------------------------------
                         ORCA PROPERTY INTEGRAL CALCULATIONS
------------------------------------------------------------------------------

GBWName                                   ... 0_1_confsstruct_1.gbw
Number of atoms                           ...     73
Number of basis functions                 ...    936
Max core memory                           ...  12000 MB

Dipole integrals                          ... YES
Quadrupole integrals                      ...  NO
Linear momentum integrals                 ...  NO
Angular momentum integrals                ...  NO
Higher moments length integrals           ...  NO
Higher moments velocity integrals         ...  NO
Kinetic energy integrals                  ...  NO
GIAO right hand sides                     ...  NO
GIAO dipole derivative integrals          ...  NO
SOC integrals                             ...  NO
EPR diamagnetic integrals (GIAO)          ...  NO
EPR gauge integrals                       ...  NO
Field gradient integrals                  ...  NO (   0 nuclei)
Spin-dipole/Fermi contact integrals       ...  NO (   0 nuclei)
Contact density integrals                 ...  NO (   0 nuclei)
Nucleus-orbit integrals                   ...  NO (   0 nuclei)
Geometric perturbations                   ... YES (  73 nuclei)

Choice of electric origin   ... Center of mass
Position of electric origin ... (  1.8869, -8.5026, -8.7907) 
Choice of magnetic origin   ... GIAO
Position of magnetic origin ... (  0.0000,  0.0000,  0.0000) 

Calculating integrals                     ... Electric Dipole (Length)     done (  0.0 sec)
Calculating integrals                     ... Geometrical perturbation right hand sides

-----------------------
GEOMETRIC PERTURBATIONS (73 nuclei)
-----------------------

MaxCore                            ...  12000 MB
Number of batches                  ...      1

BATCH   0: Atoms    0 -   72 (219 perturbations)
   => H(core) and overlap derivative integrals     ... done (     2.7 sec)
   => Making and storing internal U-coefficients   ... done (     0.7 sec)
   => RI-J derivative integrals                    ... 