
                                 *****************
                                 * O   R   C   A *
                                 *****************

                                            #,                                       
                                            ###                                      
                                            ####                                     
                                            #####                                    
                                            ######                                   
                                           ########,                                 
                                     ,,################,,,,,                         
                               ,,#################################,,                 
                          ,,##########################################,,             
                       ,#########################################, ''#####,          
                    ,#############################################,,   '####,        
                  ,##################################################,,,,####,       
                ,###########''''           ''''###############################       
              ,#####''   ,,,,##########,,,,          '''####'''          '####       
            ,##' ,,,,###########################,,,                        '##       
           ' ,,###''''                  '''############,,,                           
         ,,##''                                '''############,,,,        ,,,,,,###''
      ,#''                                            '''#######################'''  
     '                                                          ''''####''''         
             ,#######,   #######,   ,#######,      ##                                
            ,#'     '#,  ##    ##  ,#'     '#,    #''#        ,####,    ,#,          
            ##       ##  ##   ,#'  ##            #'  '#       #'       ,# #          
            ##       ##  #######   ##           ,######,      #####,      #          
            '#,     ,#'  ##    ##  '#,     ,#' ,#      #,     #,   #      #          
             '#######'   ##     ##  '#######'  #'      '#     '####' #    #          



                #########################################################
                #                        -***-                          #
                #          Department of theory and spectroscopy        #
                #                                                       #
                #                      Frank Neese                      #
                #                                                       #
                #     Directorship, Architecture, Infrastructure        #
                #                    SHARK, DRIVERS                     #
                #        Core code/Algorithms in most modules           #
                #                                                       #
                #        Max Planck Institute fuer Kohlenforschung      #
                #                Kaiser Wilhelm Platz 1                 #
                #                 D-45470 Muelheim/Ruhr                 #
                #                      Germany                          #
                #                                                       #
                #                  All rights reserved                  #
                #                        -***-                          #
                #########################################################


                         Program Version 6.1.0  -  RELEASE   -
                                (GIT: $679e74b$)
                          ($2025-06-10 18:02:51 +0200$)


 With contributions from (in alphabetic order):
[Max-Planck-Institut fuer Kohlenforschung]                               
  Daniel Aravena         : Magnetic Suceptibility                        
  Michael Atanasov       : Ab Initio Ligand Field Theory (pilot matlab implementation)
  Alexander A. Auer      : GIAO ZORA, VPT2 properties, NMR spectrum      
  Ute Becker             : All parallelization in ORCA, NUMFREQ, NUMCALC 
  Giovanni Bistoni       : ED, misc. LED, open-shell LED, HFLD           
  Dmytro Bykov           : pre 5.0 version of the SCF Hessian            
  Marcos Casanova-Páez   : Triplet and SCS-CIS(D). UHF-(DLPNO)-IP/EA/STEOM-CCSD. UHF-CVS-IP/STEOM-CCSD   
  Vijay G. Chilkuri      : MRCI spin determinant printing, contributions to CSF-ICE 
  Pauline Colinet        : FMM embedding                                 
  Dipayan Datta          : RHF DLPNO-CCSD density                        
  Achintya Kumar Dutta   : EOM-CC, STEOM-CC                              
  Nicolas Foglia         : Exact transition moments, OPA infrastructure, MCD improvements    
  Dmitry Ganyushin       : Spin-Orbit,Spin-Spin,Magnetic field MRCI      
  Miquel Garcia-Rates    : C-PCM and meta-GGA Hessian, CCSD/C-PCM, Gaussian charge scheme 
  Tiago L. C. Gouveia    : GS-ROHF, GS-ROCIS                             
  Yang Guo               : DLPNO-NEVPT2, F12-NEVPT2, CIM, IAO-localization        
  Andreas Hansen         : Spin unrestricted coupled pair/coupled cluster methods 
  Ingolf Harden          : AUTO-CI MPn and infrastructure                
  Benjamin Helmich-Paris : MC-RPA, TRAH-(SCF,CASSCF), AVAS, COSX integrals, SCF dyn. polar., MC-PDFT, srDFT 
  Lee Huntington         : MR-EOM, pCC                                   
  Robert Izsak           : Overlap fitted RIJCOSX, COSX-SCS-MP3, EOM     
  Riya Kayal             : Wick's Theorem for AUTO-CI, AUTO-CI UHF-CCSDT 
  Emily Kempfer          : AUTO-CI RHF CISDT and CCSDT, approximate NEVPT4
  Christian Kollmar      : KDIIS, OOCD, Brueckner-CCSD(T), CCSD density, CASPT2, CASPT2-K, improved NEVPT2 
  Axel Koslowski         : Symmetry handling                             
  Simone Kossmann        : meta-GGA functionals, TD-DFT gradient, OOMP2, (MP2 Hessian; deprecated post 5.0) 
  Lucas Lang             : DCDCAS, Hyperfine gauge corrections, ICE-SOC+SSC
  Marvin Lechner         : AUTO-CI (C++ implementation), FIC-MRCC        
  Spencer Leger          : CASSCF response                               
  Dagmar Lenk            : GEPOL surface, SMD, ORCA-2-JSON               
  Dimitrios Liakos       : Extrapolation schemes; Compound Job, Property file
  Dimitrios Manganas     : Further ROCIS development; embedding schemes. LFT, Crystal Embedding 
  Dimitrios Pantazis     : SARC Basis sets                               
  Anastasios Papadopoulos: AUTO-CI, single reference methods and gradients 
  Taras Petrenko         : pre 6.0 DFT Hessian and TD-DFT gradient,  ECA, NRVS 
  Petra Pikulova         : Analytic Raman intensities                    
  Peter Pinski           : DLPNO-MP2, DLPNO-MP2 Gradient                 
  Shashank Vittal Rao    : ES-AILFT, MagRelax                            
  Christoph Reimann      : Effective Core Potentials                     
  Marius Retegan         : Local ZFS, SOC                                
  Christoph Riplinger    : Optimizer, TS searches, QM/MM, DLPNO-CCSD(T), (RO)-DLPNO pert. Triples 
  Michael Roemelt        : Original ROCIS implementation, recursive CI coupling coefficients
  Masaaki Saitow         : Open-shell DLPNO-CCSD energy and density      
  Barbara Sandhoefer     : DKH picture change effects                    
  Yorick L. A. Schmerwitz: GMF and freeze-and-release deltaSCF, NEB S-IDPP initial path                    
  Kantharuban Sivalingam : CASSCF convergence/infrastructure, NEVPT2, NEVPT3, NEVPT4(SD), FIC-MRCI and CEPA variants
  Bernardo de Souza      : ESD, SOC TD-DFT                               
  Georgi L. Stoychev     : AutoAux, RI-MP2 NMR, DLPNO-MP2 response, X2C  
  Van Anh Tran           : RI-MP2 g-tensors                              
  Willem Van den Heuvel  : Paramagnetic NMR                              
  Zikuan Wang            : NOTCH, Electric field optimization            
  Frank Wennmohs         : Technical directorship and infrastructure     
  Hang Xu                : AUTO-CI-Response properties                   
                                                                         
[FACCTs GmbH]                                                            
  Markus Bursch, Nicolas Foglia, Miquel Garcia-Rates, Ingolf Harden, Hagen Neugebauer, Anastasios Papadopoulos, 
  Christoph Riplinger, Bernardo de Souza, Georgi L. Stoychev                                                    
                                                                 
  APM, various basis sets, CI-OPT, improved COSX, DLPNO-Multilevel,           
  DOCKER, DRACO, updates on ESD, Fragmentator, GOAT, IRC, LR-CPCM, L-BFGS, MBIS, meta-GGA TD-DFT gradient, ML-optimized integration grids, 
  MM, NACMEs, nearIR, NEB, NEB-TS, NL-DFT gradient (VV10), 2- and 3-layer-ONIOM, interface openCOSMO-RS, QMMM,   
  Crystal-QMMM, RESP, rigid body optimization, SF, symmetry and pop. for TD-DFT, various functionals, SOLVATOR                                   
                                                                         
[Other institutions]                                                     
  V. Asgeirsson          : NEB                                           
  Christoph Bannwarth    : sTDA-DFT, sTD-DFT, PBEh-3c, B97-3c, D3        
  Giovanni Bistoni       : ETS/NOCV, ADLD/ADEX, COVALED                  
  Martin Brehm           : Molecular dynamics                            
  Ronald Cardenas        : ETS/NOCV                                      
  Martina Colucci        : COVALED                                       
  Sebastian Ehlert       : rSCAN, r2SCAN, r2SCAN-3c, D4, dhf basis sets  
  Marvin Friede          : D4 for Fr, Ra, Ac-Lr                          
  Lars Goerigk           : TD-DFT with DH, B97 family of functionals     
  Stefan Grimme          : VdW corrections, initial TS optimization, DFT functionals, gCP, sTDA/sTD-DF 
  Waldemar Hujo          : DFT-NL                                        
  H. Jonsson             : NEB                                           
  Holger Kruse           : gCP                                           
  Marcel Mueller         : wB97X-3c, vDZP basis set                      
  Hagen Neugebauer       : wr2SCAN, Native XTB                           
  Gianluca Regni         : ADLD/ADEX                                     
  Tobias Risthaus        : pre 6.0 range-separated hybrid DFT and stability analysis
  Lukas Wittmann         : regularized MP2, r2SCAN double-hybrids, wr2SCAN        
                                                                         
We gratefully acknowledge several colleagues who have allowed us to      
interface, adapt or use parts of their codes:                            
  Ed Valeev, F. Pavosevic, A. Kumar             : LibInt (2-el integral package), F12 methods 
  Garnet Chan, S. Sharma, J. Yang, R. Olivares  : DMRG                   
  Ulf Ekstrom                                   : XCFun DFT Library      
  Mihaly Kallay                                 : mrcc  (arbitrary order and MRCC methods)
  Frank Weinhold                                : gennbo (NPA and NBO analysis)           
  Simon Mueller                                 : openCOSMO-RS                            
  Christopher J. Cramer and Donald G. Truhlar   : smd solvation model                     
  S Lehtola, MJT Oliveira, MAL Marques          : LibXC Library                           
  Liviu Ungur et al                             : ANISO software                          


 Your calculation uses the libint2 library for the computation of 2-el integrals
 For citations please refer to: http://libint.valeyev.net

 Your ORCA version has been built with support for libXC version: 7.0.0
 For citations please refer to: https://libxc.gitlab.io

 This ORCA versions uses:
   CBLAS   interface :  Fast vector & matrix operations
   LAPACKE interface :  Fast linear algebra routines
   SCALAPACK package :  Parallel linear algebra routines
   Shared memory     :  Shared parallel matrices
   BLAS/LAPACK       :  OpenBLAS 0.3.29  USE64BITINT DYNAMIC_ARCH NO_AFFINITY Cooperlake SINGLE_THREADED
        Core in use  :  Cooperlake
   Copyright (c) 2011-2014, The OpenBLAS Project


  ***********************************
  * Starting time: Tue Jan 27 15:58:17 2026
  * Host name:     node236.cluster
  * Process ID:    2481901
  * Working dir.:  /scratch/56627329
  ***********************************

NOTE: MaxCore=12000 MB was set to SCF,MP2,MDCI,CIPSI,MRCI,RASCI and CIS
      => If you want to overwrite this, your respective input block should be placed after the MaxCore statement
Your calculation utilizes the geometrical counterpoise correction gCP
Please cite in your paper:
H.Kruse, S. Grimme J.Chem.Phys., 136, (2012), 154101 
   

Your calculation utilizes the atom-pairwise dispersion correction
based on EEQ partial charges (D4)


================================================================================

----- Orbital basis set information -----
Your calculation utilizes the basis: def2-mTZVPP
   Stefan Grimme, Andreas Hansen, Sebastian Ehlert, and Jan-Michael Mewes 
   J. Chem. Phys. 154, 064103 (2021). DOI: 10.1063/5.0040021

----- AuxJ basis set information -----
Your calculation utilizes the basis: def2-mTZVPP/J
   Stefan Grimme, Andreas Hansen, Sebastian Ehlert, and Jan-Michael Mewes 
   J. Chem. Phys. 154, 000000 (2021). DOI: 10.1063/5.0040021

================================================================================
                                        WARNINGS
                       Please study these warnings very carefully!
================================================================================



WARNING: SCAN, rSCAN, or r2SCAN functional requested.
  ===> : libXC variant has now been activated.



WARNING: Geometry Optimization
  ===> : Switching off AutoStart
         For restart on a previous wavefunction, please use MOREAD

================================================================================
                                       INPUT FILE
================================================================================
NAME = 12_3_confsstruct_1.inp
|  1> !r2scan-3c opt freq 
|  2> %pal 
|  3> nprocs 8 
|  4> end 
|  5> %maxcore 12000
|  6>  
|  7> * XYZ 0 1 
|  8> O     -7.58832600     -1.76873600     -6.23967300
|  9> C     -6.43698200     -1.42897100     -6.08146600
| 10> O     -5.99556200     -0.83856700     -5.02404100
| 11> Ni     -4.19307800     -0.67900200     -4.89721400
| 12> N     -4.13837500     -0.95459300     -6.73284300
| 13> C     -5.33186300     -1.70302400     -7.14098400
| 14> C     -5.84718400     -1.27352100     -8.48773700
| 15> C     -5.75179100      0.05364800     -8.88697900
| 16> C     -6.26767500      0.45568300    -10.10425900
| 17> C     -6.89647000     -0.45977500    -10.93118200
| 18> C     -7.01037400     -1.77960300    -10.53071500
| 19> C     -6.48724700     -2.18500600     -9.31640500
| 20> C     -3.09729500     -0.93736100     -7.62083700
| 21> C     -2.18720900      0.13529800     -7.60618900
| 22> C     -1.15772500      0.22443000     -8.51718100
| 23> C     -0.98524000     -0.75616700     -9.47969900
| 24> C     -1.87522200     -1.81772500     -9.51956000
| 25> C     -2.91265100     -1.91380500     -8.61809800
| 26> P     -2.02799000     -0.50276400     -4.63711900
| 27> C     -1.67522700      1.23597300     -4.21926800
| 28> C     -2.64820700      2.17258800     -4.55664400
| 29> C     -2.48854800      3.50064800     -4.20954300
| 30> C     -1.35928700      3.89678200     -3.51151800
| 31> C     -0.39750400      2.96482100     -3.15531800
| 32> C     -0.55316300      1.63435400     -3.50122100
| 33> C     -0.62169700     -1.15439000     -5.58165900
| 34> C     -0.72993200     -2.48261900     -5.98401700
| 35> C      0.29047100     -3.07579100     -6.70070500
| 36> C      1.42615400     -2.34604500     -7.01388100
| 37> C      1.53568500     -1.02445100     -6.61433800
| 38> C      0.51344800     -0.42210000     -5.90315300
| 39> C     -1.70916000     -1.22914500     -2.98318000
| 40> C     -0.51763700     -1.82003500     -2.58646000
| 41> C     -0.39168600     -2.31521600     -1.29828600
| 42> C     -1.44632900     -2.22308000     -0.40363700
| 43> C     -2.63974500     -1.63612100     -0.79128900
| 44> C     -2.77209500     -1.13760300     -2.07902500
| 45> P     -4.29622600     -0.37321900     -2.72923100
| 46> C     -4.26853700      1.29897100     -2.01731600
| 47> C     -3.25635600      1.78477600     -1.19999800
| 48> C     -3.30551900      3.09479200     -0.75628100
| 49> C     -4.35602400      3.91863700     -1.12415600
| 50> C     -5.36602300      3.43620900     -1.94307200
| 51> C     -5.31995700      2.13206500     -2.39522300
| 52> C     -5.59818200     -1.21560600     -1.78555600
| 53> C     -6.17643500     -0.69508600     -0.63353500
| 54> C     -7.15423700     -1.41850100      0.02643000
| 55> C     -7.55823300     -2.65192600     -0.45822500
| 56> C     -6.98445700     -3.17101700     -1.60824100
| 57> C     -6.00675900     -2.45467700     -2.27074500
| 58> H     -5.17456600     -2.79624100     -7.13428900
| 59> H     -5.26762100      0.76809900     -8.23734400
| 60> H     -6.18355600      1.48960100    -10.40788000
| 61> H     -7.30074600     -0.14445100    -11.88242800
| 62> H     -7.50775000     -2.49725600    -11.16760900
| 63> H     -6.58389200     -3.21526100     -9.00447600
| 64> H     -2.33937100      0.93074900     -6.88411000
| 65> H     -0.48645500      1.07183200     -8.48210100
| 66> H     -0.17753900     -0.68956600    -10.19286800
| 67> H     -1.75579700     -2.58877900    -10.26815400
| 68> H     -3.58684100     -2.75234400     -8.68852500
| 69> H     -3.54018300      1.83572800     -5.08718800
| 70> H     -3.24515600      4.22389300     -4.47349700
| 71> H     -1.23186000      4.93292200     -3.23594800
| 72> H      0.47528300      3.27553300     -2.59972300
| 73> H      0.18660700      0.90364500     -3.20391400
| 74> H     -1.63018000     -3.03359900     -5.74054300
| 75> H      0.20046900     -4.10269200     -7.02158400
| 76> H      2.22349000     -2.80572800     -7.57835200
| 77> H      2.41874200     -0.45601500     -6.86698500
| 78> H      0.58841100      0.61696600     -5.61759200
| 79> H      0.30371000     -1.90571800     -3.28436500
| 80> H      0.53377300     -2.78079300     -0.99312800
| 81> H     -1.34104000     -2.61650700      0.59645200
| 82> H     -3.47017900     -1.57146100     -0.10185300
| 83> H     -2.43265100      1.14565600     -0.91463700
| 84> H     -2.51839400      3.47349300     -0.12082700
| 85> H     -4.38651800      4.94004600     -0.77484000
| 86> H     -6.18308100      4.08059600     -2.23183100
| 87> H     -6.08833200      1.73892900     -3.04939000
| 88> H     -5.86845600      0.27187200     -0.25993400
| 89> H     -7.60703500     -1.01444700      0.92028800
| 90> H     -8.32838600     -3.20612600      0.05752100
| 91> H     -7.30861700     -4.12679900     -1.99167900
| 92> H     -5.56426600     -2.83649300     -3.18325000
| 93> 
| 94> **                         ****END OF INPUT****
================================================================================

                       *****************************
                       * Geometry Optimization Run *
                       *****************************

Geometry optimization settings:
Update method            Update   .... BFGS
Choice of coordinates    CoordSys .... (2022) Redundant Internals
Initial Hessian          InHess   .... Almloef's Model
Max. no of cycles        MaxIter  .... 255

Convergence Tolerances:
Energy Change            TolE     ....  5.0000e-06 Eh
Max. Gradient            TolMAXG  ....  3.0000e-04 Eh/bohr
RMS Gradient             TolRMSG  ....  1.0000e-04 Eh/bohr
Max. Displacement        TolMAXD  ....  4.0000e-03 bohr
RMS Displacement         TolRMSD  ....  2.0000e-03 bohr
Strict Convergence                .... False

------------------------------------------------------------------------------
                        ORCA OPTIMIZATION COORDINATE SETUP
------------------------------------------------------------------------------

The optimization will be done in redundant internal coordinates (2022)
Making redundant internal coordinates   ...  (2022 redundants) done
Evaluating the initial hessian          ...  (Almloef) done
Evaluating the coordinates              ...  done
Calculating the B-matrix                .... done
Calculating the G-matrix                .... done
The number of degrees of freedom        ....  552

    -----------------------------------------------------------------
                    Redundant Internal Coordinates


    -----------------------------------------------------------------
         Definition                    Initial Value    Approx d2E/dq
    -----------------------------------------------------------------
      1. B(C   1,O   0)                  1.2108         1.080838   
      2. B(O   2,C   1)                  1.2890         0.810924   
      3. B(Ni  3,C   1)                  2.6458         0.062718   
      4. B(Ni  3,O   2)                  1.8140         1.192834   
      5. B(N   4,Ni  3)                  1.8570         1.018403   
      6. B(C   5,Ni  3)                  2.7166         0.048344   
      7. B(C   5,N   4)                  1.4667         0.422223   
      8. B(C   5,C   1)                  1.5553         0.340413   
      9. B(C   6,C   5)                  1.5046         0.410136   
     10. B(C   7,C   6)                  1.3892         0.626640   
     11. B(C   8,C   7)                  1.3819         0.643760   
     12. B(C   9,C   8)                  1.3846         0.637204   
     13. B(C  10,C   9)                  1.3839         0.638858   
     14. B(C  11,C  10)                  1.3830         0.641180   
     15. B(C  11,C   6)                  1.3882         0.628878   
     16. B(C  12,N   4)                  1.3685         0.605681   
     17. B(C  13,C  12)                  1.4068         0.587415   
     18. B(C  14,C  13)                  1.3776         0.653998   
     19. B(C  15,C  14)                  1.3848         0.636769   
     20. B(C  16,C  15)                  1.3858         0.634410   
     21. B(C  17,C  16)                  1.3777         0.653618   
     22. B(C  17,C  12)                  1.4079         0.585122   
     23. B(P  18,Ni  3)                  2.1878         1.133899   
     24. B(C  19,P  18)                  1.8227         0.428432   
     25. B(C  20,C  19)                  1.3920         0.620144   
     26. B(C  21,C  20)                  1.3819         0.643611   
     27. B(C  22,C  21)                  1.3854         0.635395   
     28. B(C  23,C  22)                  1.3858         0.634499   
     29. B(C  24,C  23)                  1.3835         0.639939   
     30. B(C  24,C  19)                  1.3904         0.623785   
     31. B(C  25,P  18)                  1.8151         0.440637   
     32. B(C  26,C  25)                  1.3920         0.620112   
     33. B(C  27,C  26)                  1.3808         0.646181   
     34. B(C  28,C  27)                  1.3858         0.634560   
     35. B(C  29,C  28)                  1.3850         0.636364   
     36. B(C  30,C  29)                  1.3833         0.640314   
     37. B(C  30,C  25)                  1.3886         0.628059   
     38. B(C  31,P  18)                  1.8343         0.410506   
     39. B(C  32,C  31)                  1.3879         0.629636   
     40. B(C  33,C  32)                  1.3858         0.634496   
     41. B(C  34,C  33)                  1.3861         0.633909   
     42. B(C  35,C  34)                  1.3853         0.635694   
     43. B(C  36,C  35)                  1.3872         0.631276   
     44. B(C  36,C  31)                  1.3985         0.605664   
     45. B(P  37,C  36)                  1.8248         0.425089   
     46. B(P  37,Ni  3)                  2.1919         1.116928   
     47. B(C  38,P  37)                  1.8176         0.436478   
     48. B(C  39,C  38)                  1.3887         0.627756   
     49. B(C  40,C  39)                  1.3840         0.638731   
     50. B(C  41,C  40)                  1.3848         0.636895   
     51. B(C  42,C  41)                  1.3869         0.631980   
     52. B(C  43,C  42)                  1.3811         0.645633   
     53. B(C  43,C  38)                  1.3937         0.616407   
     54. B(C  44,P  37)                  1.8153         0.440282   
     55. B(C  45,C  44)                  1.3901         0.624491   
     56. B(C  46,C  45)                  1.3838         0.639125   
     57. B(C  47,C  46)                  1.3854         0.635354   
     58. B(C  48,C  47)                  1.3861         0.633865   
     59. B(C  49,C  48)                  1.3813         0.645124   
     60. B(C  49,C  44)                  1.3920         0.620242   
     61. B(H  50,C   5)                  1.1045         0.341426   
     62. B(H  51,C   7)                  1.0802         0.373266   
     63. B(H  52,C   8)                  1.0809         0.372403   
     64. B(H  53,C   9)                  1.0806         0.372726   
     65. B(H  54,C  10)                  1.0808         0.372533   
     66. B(H  55,C  11)                  1.0808         0.372519   
     67. B(H  56,C  13)                  1.0850         0.366733   
     68. B(H  57,C  14)                  1.0816         0.371344   
     69. B(H  58,C  28)                  3.9270         0.010000   
     70. B(H  58,C  15)                  1.0795         0.374194   
     71. B(H  59,C  16)                  1.0813         0.371814   
     72. B(H  60,C  17)                  1.0783         0.375973   
     73. B(H  61,C  20)                  1.0911         0.358603   
     74. B(H  62,C  21)                  1.0794         0.374331   
     75. B(H  63,C  22)                  1.0797         0.373980   
     76. B(H  64,C  23)                  1.0803         0.373203   
     77. B(H  65,C  24)                  1.0815         0.371557   
     78. B(H  66,C  26)                  1.0832         0.369220   
     79. B(H  67,C  27)                  1.0796         0.374090   
     80. B(H  68,C  28)                  1.0797         0.374032   
     81. B(H  69,C  29)                  1.0802         0.373359   
     82. B(H  70,C  30)                  1.0802         0.373306   
     83. B(H  71,C  32)                  1.0812         0.371912   
     84. B(H  72,C  33)                  1.0800         0.373602   
     85. B(H  73,C  34)                  1.0798         0.373798   
     86. B(H  74,C  35)                  1.0813         0.371849   
     87. B(H  75,C  39)                  1.0809         0.372310   
     88. B(H  76,H  63)                  3.6727         0.010000   
     89. B(H  76,C  40)                  1.0802         0.373332   
     90. B(H  77,C  41)                  1.0799         0.373684   
     91. B(H  78,C  42)                  1.0799         0.373702   
     92. B(H  79,C  43)                  1.0830         0.369479   
     93. B(H  80,C  45)                  1.0814         0.371652   
     94. B(H  81,C  46)                  1.0804         0.373024   
     95. B(H  82,C  47)                  1.0799         0.373659   
     96. B(H  83,C  48)                  1.0796         0.374068   
     97. B(H  84,C  49)                  1.0836         0.368629   
     98. A(O   0,C   1,C   5)          122.4929         0.427852   
     99. A(O   0,C   1,Ni  3)          160.8196         0.355866   
    100. A(Ni  3,C   1,C   5)           75.6551         0.296164   
    101. A(O   2,C   1,C   5)          113.3418         0.406517   
    102. A(O   2,C   1,Ni  3)           38.0521         0.339063   
    103. A(O   0,C   1,O   2)          124.1485         0.498020   
    104. A(C   1,O   2,Ni  3)          115.9714         0.573217   
    105. A(O   2,Ni  3,C   5)           59.5062         0.386853   
    106. A(N   4,Ni  3,C   5)           30.6800         0.376383   
    107. A(C   1,Ni  3,C   5)           33.6878         0.242820   
    108. A(C   1,Ni  3,P  18)          156.2587         0.422402   
    109. A(O   2,Ni  3,P  37)           91.9866         0.732391   
    110. A(C   1,Ni  3,O   2)           25.9765         0.404928   
    111. A(C   1,Ni  3,P  37)          116.2546         0.421266   
    112. A(C   5,Ni  3,P  18)          122.9159         0.403327   
    113. A(O   2,Ni  3,N   4)           86.9679         0.679251   
    114. A(N   4,Ni  3,P  18)           95.7576         0.711898   
    115. A(C   1,Ni  3,N   4)           62.6428         0.393823   
    116. A(P  18,Ni  3,P  37)           85.2817         0.767978   
    117. A(C   5,Ni  3,P  37)          148.1905         0.402256   
    118. A(Ni  3,N   4,C   5)          109.0766         0.492039   
    119. A(C   5,N   4,C  12)          116.4180         0.398503   
    120. A(Ni  3,N   4,C  12)          131.4505         0.526335   
    121. A(C   1,C   5,Ni  3)           70.6571         0.284312   
    122. A(N   4,C   5,H  50)          112.7993         0.326065   
    123. A(Ni  3,C   5,N   4)           40.2434         0.292382   
    124. A(C   1,C   5,H  50)          105.7517         0.316659   
    125. A(C   1,C   5,C   6)          108.4275         0.363377   
    126. A(Ni  3,C   5,C   6)          140.8298         0.292725   
    127. A(C   1,C   5,N   4)          107.3803         0.362914   
    128. A(N   4,C   5,C   6)          112.4651         0.374713   
    129. A(C   6,C   5,H  50)          109.6791         0.326465   
    130. A(Ni  3,C   5,H  50)          107.9624         0.258037   
    131. A(C   5,C   6,C  11)          120.3176         0.404268   
    132. A(C   5,C   6,C   7)          120.4271         0.404014   
    133. A(C   7,C   6,C  11)          119.1682         0.436014   
    134. A(C   6,C   7,C   8)          120.3628         0.437856   
    135. A(C   8,C   7,H  51)          120.3093         0.357337   
    136. A(C   6,C   7,H  51)          119.3277         0.355705   
    137. A(C   9,C   8,H  52)          120.0013         0.356576   
    138. A(C   7,C   8,H  52)          119.7819         0.357196   
    139. A(C   7,C   8,C   9)          120.2160         0.439178   
    140. A(C   8,C   9,H  53)          120.1775         0.356628   
    141. A(C   8,C   9,C  10)          119.6753         0.438573   
    142. A(C  10,C   9,H  53)          120.1466         0.356785   
    143. A(C   9,C  10,H  54)          120.0408         0.356754   
    144. A(C   9,C  10,C  11)          120.1662         0.439066   
    145. A(C  11,C  10,H  54)          119.7930         0.356974   
    146. A(C  10,C  11,H  55)          119.9363         0.356972   
    147. A(C   6,C  11,C  10)          120.4022         0.437820   
    148. A(C   6,C  11,H  55)          119.6592         0.355799   
    149. A(C  13,C  12,C  17)          116.8313         0.425437   
    150. A(N   4,C  12,C  17)          123.4146         0.424989   
    151. A(N   4,C  12,C  13)          119.6699         0.425287   
    152. A(C  14,C  13,H  56)          119.8322         0.357223   
    153. A(C  12,C  13,H  56)          118.3720         0.350783   
    154. A(C  12,C  13,C  14)          121.7294         0.434019   
    155. A(C  13,C  14,H  57)          119.5404         0.357982   
    156. A(C  13,C  14,C  15)          120.4576         0.440377   
    157. A(C  15,C  14,H  57)          120.0001         0.356362   
    158. A(C  14,C  15,H  58)          120.5747         0.356825   
    159. A(C  16,C  15,H  58)          120.5797         0.356600   
    160. A(C  14,C  15,C  16)          118.8428         0.437967   
    161. A(C  15,C  16,H  59)          119.6837         0.356214   
    162. A(C  15,C  16,C  17)          121.2098         0.440035   
    163. A(C  17,C  16,H  59)          119.1062         0.358024   
    164. A(C  12,C  17,H  60)          120.2408         0.352029   
    165. A(C  12,C  17,C  16)          120.9222         0.433668   
    166. A(C  16,C  17,H  60)          118.8369         0.358702   
    167. A(C  25,P  18,C  31)          101.0917         0.431478   
    168. A(Ni  3,P  18,C  31)          104.3181         0.568186   
    169. A(C  19,P  18,C  25)          108.1689         0.434807   
    170. A(Ni  3,P  18,C  25)          132.5298         0.575930   
    171. A(Ni  3,P  18,C  19)          107.1954         0.572844   
    172. A(C  19,P  18,C  31)           97.8978         0.429308   
    173. A(C  20,C  19,C  24)          119.7643         0.434560   
    174. A(P  18,C  19,C  24)          123.2220         0.433815   
    175. A(P  18,C  19,C  20)          116.8083         0.433358   
    176. A(C  19,C  20,H  61)          118.7839         0.352674   
    177. A(C  19,C  20,C  21)          120.3304         0.437016   
    178. A(C  21,C  20,H  61)          120.8816         0.354900   
    179. A(C  22,C  21,H  62)          120.1951         0.356716   
    180. A(C  20,C  21,H  62)          120.0992         0.357496   
    181. A(C  20,C  21,C  22)          119.7032         0.438935   
    182. A(C  21,C  22,C  23)          120.1931         0.437807   
    183. A(C  23,C  22,H  63)          119.8585         0.356574   
    184. A(C  21,C  22,H  63)          119.9461         0.356660   
    185. A(C  22,C  23,C  24)          120.2904         0.438370   
    186. A(C  24,C  23,H  64)          119.7420         0.356965   
    187. A(C  22,C  23,H  64)          119.9665         0.356448   
    188. A(C  19,C  24,C  23)          119.6992         0.437026   
    189. A(C  23,C  24,H  65)          120.2698         0.356697   
    190. A(C  19,C  24,H  65)          120.0258         0.355153   
    191. A(C  26,C  25,C  30)          119.9887         0.435090   
    192. A(P  18,C  25,C  30)          124.3701         0.436551   
    193. A(P  18,C  25,C  26)          115.6406         0.435550   
    194. A(C  25,C  26,C  27)          120.1616         0.437326   
    195. A(C  27,C  26,H  66)          120.8185         0.356903   
    196. A(C  25,C  26,H  66)          119.0121         0.354418   
    197. A(C  26,C  27,C  28)          119.7814         0.439146   
    198. A(C  28,C  27,H  67)          120.1344         0.356598   
    199. A(C  26,C  27,H  67)          120.0829         0.357699   
    200. A(C  27,C  28,C  29)          120.1392         0.437935   
    201. A(C  27,C  28,H  68)          119.9451         0.356588   
    202. A(C  29,C  28,H  68)          119.9133         0.356760   
    203. A(C  28,C  29,C  30)          120.3560         0.438649   
    204. A(C  30,C  29,H  69)          119.6849         0.357026   
    205. A(C  28,C  29,H  69)          119.9561         0.356651   
    206. A(C  25,C  30,C  29)          119.5706         0.437611   
    207. A(C  29,C  30,H  70)          120.2309         0.357018   
    208. A(C  25,C  30,H  70)          120.1861         0.355848   
    209. A(C  32,C  31,C  36)          119.7087         0.433444   
    210. A(P  18,C  31,C  36)          115.1455         0.428224   
    211. A(P  18,C  31,C  32)          125.1375         0.431218   
    212. A(C  33,C  32,H  71)          120.1754         0.356238   
    213. A(C  31,C  32,H  71)          120.0927         0.355774   
    214. A(C  31,C  32,C  33)          119.7264         0.437089   
    215. A(C  34,C  33,H  72)          119.8877         0.356456   
    216. A(C  32,C  33,H  72)          119.6418         0.356512   
    217. A(C  32,C  33,C  34)          120.4696         0.437622   
    218. A(C  35,C  34,H  73)          119.8374         0.356659   
    219. A(C  33,C  34,H  73)          119.9593         0.356488   
    220. A(C  33,C  34,C  35)          120.2017         0.437771   
    221. A(C  36,C  35,H  74)          119.8110         0.355920   
    222. A(C  34,C  35,H  74)          120.5676         0.356342   
    223. A(C  34,C  35,C  36)          119.6192         0.437442   
    224. A(C  35,C  36,P  37)          124.1238         0.434135   
    225. A(C  31,C  36,P  37)          115.5868         0.430915   
    226. A(C  31,C  36,C  35)          120.2742         0.433647   
    227. A(C  38,P  37,C  44)          103.5466         0.436203   
    228. A(C  36,P  37,C  44)          102.6752         0.434132   
    229. A(Ni  3,P  37,C  44)          118.8946         0.574182   
    230. A(C  36,P  37,C  38)          103.4785         0.433455   
    231. A(Ni  3,P  37,C  38)          120.9994         0.573231   
    232. A(Ni  3,P  37,C  36)          104.7549         0.570341   
    233. A(C  39,C  38,C  43)          120.0227         0.434583   
    234. A(P  37,C  38,C  43)          115.6095         0.434339   
    235. A(P  37,C  38,C  39)          124.2946         0.435768   
    236. A(C  40,C  39,H  75)          120.1388         0.356706   
    237. A(C  38,C  39,C  40)          119.5988         0.437377   
    238. A(C  38,C  39,H  75)          120.2619         0.355657   
    239. A(C  39,C  40,C  41)          120.3250         0.438519   
    240. A(C  41,C  40,H  76)          120.0333         0.356697   
    241. A(C  39,C  40,H  76)          119.6417         0.356872   
    242. A(C  40,C  41,C  42)          120.1570         0.437679   
    243. A(C  42,C  41,H  77)          119.9626         0.356285   
    244. A(C  40,C  41,H  77)          119.8800         0.356754   
    245. A(C  41,C  42,C  43)          119.8346         0.438756   
    246. A(C  43,C  42,H  78)          120.0770         0.357584   
    247. A(C  41,C  42,H  78)          120.0871         0.356288   
    248. A(C  38,C  43,C  42)          120.0569         0.436787   
    249. A(C  42,C  43,H  79)          121.1230         0.356895   
    250. A(C  38,C  43,H  79)          118.8191         0.354100   
    251. A(C  45,C  44,C  49)          120.0042         0.434661   
    252. A(P  37,C  44,C  49)          116.2568         0.435504   
    253. A(P  37,C  44,C  45)          123.7376         0.436040   
    254. A(C  44,C  45,C  46)          119.5644         0.437015   
    255. A(C  46,C  45,H  80)          120.2590         0.356636   
    256. A(C  44,C  45,H  80)          120.1753         0.355236   
    257. A(C  45,C  46,C  47)          120.3057         0.438376   
    258. A(C  47,C  46,H  81)          120.0106         0.356501   
    259. A(C  45,C  46,H  81)          119.6827         0.356859   
    260. A(C  46,C  47,C  48)          120.1950         0.437723   
    261. A(C  48,C  47,H  82)          119.9510         0.356462   
    262. A(C  46,C  47,H  82)          119.8520         0.356604   
    263. A(C  47,C  48,C  49)          119.7839         0.438930   
    264. A(C  49,C  48,H  83)          120.0852         0.357596   
    265. A(C  47,C  48,H  83)          120.1270         0.356528   
    266. A(C  44,C  49,C  48)          120.1464         0.437213   
    267. A(C  48,C  49,H  84)          120.6765         0.356707   
    268. A(C  44,C  49,H  84)          119.1632         0.354334   
    269. D(Ni  3,O   2,C   1,O   0)    170.0685         0.056252   
    270. D(Ni  3,O   2,C   1,C   5)     -8.4708         0.056252   
    271. D(N   4,Ni  3,O   2,C   1)     19.6241         0.010000   
    272. D(N   4,Ni  3,C   1,O   0)    176.4357         0.010000   
    273. D(C   5,Ni  3,O   2,C   1)      5.1557         0.010000   
    274. D(O   2,Ni  3,C   1,C   5)    171.9751         0.010000   
    275. D(P  37,Ni  3,O   2,C   1)   -159.9452         0.010000   
    276. D(P  18,Ni  3,C   1,O   0)    150.0496         0.010000   
    277. D(C   5,Ni  3,C   1,O   2)   -171.9751         0.010000   
    278. D(N   4,Ni  3,C   1,O   2)   -157.8143         0.010000   
    279. D(O   2,Ni  3,C   1,O   0)    -25.7499         0.010000   
    280. D(N   4,Ni  3,C   1,C   5)     14.1608         0.010000   
    281. D(C   5,Ni  3,C   1,O   0)    162.2749         0.010000   
    282. D(C   5,N   4,Ni  3,O   2)    -24.9566         0.010000   
    283. D(C   5,N   4,Ni  3,C   1)    -15.4230         0.010000   
    284. D(C  12,N   4,Ni  3,P  18)     -4.7727         0.010000   
    285. D(C  12,N   4,Ni  3,O   2)    176.0538         0.010000   
    286. D(C  12,N   4,Ni  3,C   5)   -158.9896         0.010000   
    287. D(C  12,N   4,Ni  3,C   1)   -174.4126         0.010000   
    288. D(C   5,N   4,Ni  3,P  18)    154.2169         0.010000   
    289. D(C   1,C   5,Ni  3,P  18)    174.1711         0.010000   
    290. D(C   1,C   5,Ni  3,N   4)   -154.7960         0.010000   
    291. D(C   1,C   5,Ni  3,P  37)     25.1076         0.010000   
    292. D(C   6,C   5,C   1,O   0)     48.2983         0.010000   
    293. D(C   6,C   5,C   1,O   2)   -133.1349         0.010000   
    294. D(N   4,C   5,C   1,O   2)    -11.3769         0.010000   
    295. D(C   1,C   5,Ni  3,O   2)     -4.0692         0.010000   
    296. D(Ni  3,C   5,C   1,O   0)   -173.1893         0.010000   
    297. D(N   4,C   5,C   1,O   0)    170.0563         0.010000   
    298. D(Ni  3,C   5,C   1,O   2)      5.3775         0.010000   
    299. D(N   4,C   5,Ni  3,C   1)    154.7960         0.010000   
    300. D(Ni  3,C   5,N   4,C  12)    162.5382         0.016284   
    301. D(C   1,C   5,N   4,Ni  3)     24.8995         0.016284   
    302. D(N   4,C   5,C   1,Ni  3)    -16.7545         0.010000   
    303. D(C   6,C   5,N   4,C  12)    -53.3626         0.016284   
    304. D(N   4,C   5,Ni  3,P  37)    179.9036         0.010000   
    305. D(C   1,C   5,N   4,C  12)   -172.5623         0.016284   
    306. D(C   6,C   5,N   4,Ni  3)    144.0992         0.016284   
    307. D(C   6,C   5,Ni  3,C   1)     95.7122         0.010000   
    308. D(N   4,C   5,Ni  3,O   2)    150.7268         0.010000   
    309. D(H  50,C   5,N   4,Ni  3)    -91.2131         0.016284   
    310. D(H  50,C   5,N   4,C  12)     71.3251         0.016284   
    311. D(N   4,C   5,Ni  3,P  18)    -31.0329         0.010000   
    312. D(C  11,C   6,C   5,Ni  3)   -174.1944         0.013325   
    313. D(C  11,C   6,C   5,C   1)    -92.4605         0.013325   
    314. D(C   7,C   6,C   5,H  50)   -160.8560         0.013325   
    315. D(C   7,C   6,C   5,N   4)    -34.4701         0.013325   
    316. D(C   7,C   6,C   5,Ni  3)      2.3827         0.013325   
    317. D(C   7,C   6,C   5,C   1)     84.1165         0.013325   
    318. D(H  51,C   7,C   6,C   5)      2.4540         0.027208   
    319. D(H  51,C   7,C   6,C  11)    179.0702         0.027208   
    320. D(C   8,C   7,C   6,C  11)     -1.1014         0.027208   
    321. D(C   8,C   7,C   6,C   5)   -177.7175         0.027208   
    322. D(H  52,C   8,C   7,H  51)      0.1553         0.028817   
    323. D(H  52,C   8,C   7,C   6)   -179.6714         0.028817   
    324. D(C   9,C   8,C   7,C   6)      0.6413         0.028817   
    325. D(C   9,C   8,C   7,H  51)   -179.5320         0.028817   
    326. D(H  53,C   9,C   8,C   7)    179.9245         0.028194   
    327. D(H  53,C   9,C   8,H  52)      0.2378         0.028194   
    328. D(C  10,C   9,C   8,C   7)      0.2299         0.028194   
    329. D(C  10,C   9,C   8,H  52)   -179.4568         0.028194   
    330. D(C  11,C  10,C   9,H  53)    179.6762         0.028350   
    331. D(C  11,C  10,C   9,C   8)     -0.6291         0.028350   
    332. D(H  54,C  10,C   9,H  53)     -0.2362         0.028350   
    333. D(H  54,C  10,C   9,C   8)    179.4585         0.028350   
    334. D(H  55,C  11,C  10,H  54)     -0.4807         0.028571   
    335. D(H  55,C  11,C  10,C   9)    179.6067         0.028571   
    336. D(C   6,C  11,C  10,H  54)   -179.9274         0.028571   
    337. D(H  55,C  11,C   6,C   7)   -178.7465         0.027415   
    338. D(C   6,C  11,C  10,C   9)      0.1599         0.028571   
    339. D(H  55,C  11,C   6,C   5)     -2.1266         0.027415   
    340. D(C  10,C  11,C   6,C   7)      0.7018         0.027415   
    341. D(C  10,C  11,C   6,C   5)    177.3217         0.027415   
    342. D(C  17,C  12,N   4,C   5)    -22.7608         0.029600   
    343. D(C  17,C  12,N   4,Ni  3)    135.0071         0.029600   
    344. D(C  13,C  12,N   4,C   5)    153.7948         0.029600   
    345. D(C  13,C  12,N   4,Ni  3)    -48.4372         0.029600   
    346. D(H  56,C  13,C  12,C  17)    176.6022         0.023735   
    347. D(H  56,C  13,C  12,N   4)     -0.1762         0.023735   
    348. D(C  14,C  13,C  12,C  17)     -0.4266         0.023735   
    349. D(C  14,C  13,C  12,N   4)   -177.2049         0.023735   
    350. D(H  57,C  14,C  13,H  56)      2.1782         0.029806   
    351. D(H  57,C  14,C  13,C  12)    179.1644         0.029806   
    352. D(C  15,C  14,C  13,H  56)   -177.3281         0.029806   
    353. D(C  15,C  14,C  13,C  12)     -0.3418         0.029806   
    354. D(H  58,C  15,C  14,H  57)      0.6603         0.028153   
    355. D(H  58,C  15,C  14,C  13)   -179.8357         0.028153   
    356. D(C  16,C  15,C  14,H  57)   -178.7246         0.028153   
    357. D(C  16,C  15,C  14,C  13)      0.7793         0.028153   
    358. D(H  59,C  16,C  15,H  58)      0.3533         0.027931   
    359. D(H  59,C  16,C  15,C  14)    179.7382         0.027931   
    360. D(C  17,C  16,C  15,H  58)   -179.8269         0.027931   
    361. D(C  17,C  16,C  15,C  14)     -0.4420         0.027931   
    362. D(H  60,C  17,C  16,H  59)     -0.6199         0.029769   
    363. D(H  60,C  17,C  16,C  15)    179.5592         0.029769   
    364. D(C  12,C  17,C  16,H  59)    179.4771         0.029769   
    365. D(C  12,C  17,C  16,C  15)     -0.3437         0.029769   
    366. D(H  60,C  17,C  12,C  13)   -179.1381         0.023542   
    367. D(H  60,C  17,C  12,N   4)     -2.4918         0.023542   
    368. D(C  16,C  17,C  12,C  13)      0.7635         0.023542   
    369. D(C  16,C  17,C  12,N   4)    177.4098         0.023542   
    370. D(C  31,P  18,Ni  3,C   1)   -122.9840         0.010000   
    371. D(C  25,P  18,Ni  3,P  37)    153.4310         0.010000   
    372. D(C  19,P  18,Ni  3,C   1)    133.8700         0.010000   
    373. D(C  19,P  18,Ni  3,P  37)    -69.9500         0.010000   
    374. D(C  19,P  18,Ni  3,C   5)    125.8271         0.010000   
    375. D(C  19,P  18,Ni  3,N   4)    110.4970         0.010000   
    376. D(C  25,P  18,Ni  3,N   4)    -26.1220         0.010000   
    377. D(C  25,P  18,Ni  3,C   5)    -10.7919         0.010000   
    378. D(C  31,P  18,O   2,C   1)   -126.4217         0.010000   
    379. D(C  25,P  18,Ni  3,C   1)     -2.7489         0.010000   
    380. D(C  25,P  18,O   2,C   1)     -6.9228         0.010000   
    381. D(C  19,P  18,O   2,C   1)    130.9204         0.010000   
    382. D(C  24,C  19,P  18,C  31)     46.7534         0.010000   
    383. D(C  24,C  19,P  18,C  25)    -57.7205         0.010000   
    384. D(C  24,C  19,P  18,Ni  3)    154.4686         0.010000   
    385. D(C  20,C  19,P  18,C  31)   -128.0167         0.010000   
    386. D(C  20,C  19,P  18,C  25)    127.5094         0.010000   
    387. D(C  20,C  19,P  18,Ni  3)    -20.3015         0.010000   
    388. D(H  61,C  20,C  19,C  24)   -177.7039         0.026612   
    389. D(H  61,C  20,C  19,P  18)     -2.7434         0.026612   
    390. D(C  21,C  20,C  19,C  24)      1.5613         0.026612   
    391. D(C  21,C  20,C  19,P  18)    176.5218         0.026612   
    392. D(H  62,C  21,C  20,C  19)    179.9679         0.028802   
    393. D(C  22,C  21,C  20,H  61)    178.6528         0.028802   
    394. D(C  22,C  21,C  20,C  19)     -0.5968         0.028802   
    395. D(H  62,C  21,C  20,H  61)     -0.7825         0.028802   
    396. D(H  63,C  22,C  21,H  62)     -0.3964         0.028024   
    397. D(H  63,C  22,C  21,C  20)   -179.8312         0.028024   
    398. D(C  23,C  22,C  21,H  62)    179.0389         0.028024   
    399. D(C  23,C  22,C  21,C  20)     -0.3959         0.028024   
    400. D(H  64,C  23,C  22,H  63)      0.2423         0.027939   
    401. D(H  64,C  23,C  22,C  21)   -179.1935         0.027939   
    402. D(C  24,C  23,C  22,H  63)    179.8567         0.027939   
    403. D(C  24,C  23,C  22,C  21)      0.4209         0.027939   
    404. D(H  65,C  24,C  23,C  22)   -178.6257         0.028453   
    405. D(C  19,C  24,C  23,H  64)   -179.8382         0.028453   
    406. D(C  19,C  24,C  23,C  22)      0.5464         0.028453   
    407. D(H  65,C  24,C  19,C  20)    177.6453         0.026945   
    408. D(H  65,C  24,C  19,P  18)      3.0229         0.026945   
    409. D(C  23,C  24,C  19,C  20)     -1.5288         0.026945   
    410. D(H  65,C  24,C  23,H  64)      0.9896         0.028453   
    411. D(C  23,C  24,C  19,P  18)   -176.1512         0.026945   
    412. D(C  30,C  25,P  18,C  31)   -101.8907         0.010000   
    413. D(C  30,C  25,P  18,C  19)      0.3317         0.010000   
    414. D(C  30,C  25,P  18,Ni  3)    136.6559         0.010000   
    415. D(C  26,C  25,P  18,C  31)     77.8001         0.010000   
    416. D(C  26,C  25,P  18,C  19)   -179.9775         0.010000   
    417. D(C  26,C  25,P  18,Ni  3)    -43.6533         0.010000   
    418. D(H  66,C  26,C  25,C  30)   -178.8780         0.026610   
    419. D(H  66,C  26,C  25,P  18)      1.4166         0.026610   
    420. D(C  27,C  26,C  25,C  30)      0.1198         0.026610   
    421. D(C  27,C  26,C  25,P  18)   -179.5856         0.026610   
    422. D(H  67,C  27,C  26,H  66)     -0.3407         0.029049   
    423. D(H  67,C  27,C  26,C  25)   -179.3201         0.029049   
    424. D(C  28,C  27,C  26,H  66)    179.2447         0.029049   
    425. D(C  28,C  27,C  26,C  25)      0.2653         0.029049   
    426. D(H  68,C  28,C  27,H  67)     -0.1122         0.030374   
    427. D(H  68,C  28,C  27,C  26)   -179.6974         0.030374   
    428. D(C  29,C  28,C  27,H  67)    179.3246         0.030374   
    429. D(C  29,C  28,C  27,C  26)     -0.2606         0.030374   
    430. D(H  69,C  29,C  28,H  68)     -0.0660         0.030559   
    431. D(H  69,C  29,C  28,C  27)   -179.5029         0.030559   
    432. D(C  30,C  29,C  28,H  68)    179.3055         0.030559   
    433. D(C  30,C  29,C  28,C  27)     -0.1314         0.030559   
    434. D(H  70,C  30,C  29,H  69)      1.1662         0.028488   
    435. D(H  70,C  30,C  29,C  28)   -178.2069         0.028488   
    436. D(C  25,C  30,C  29,H  69)    179.8881         0.028488   
    437. D(C  25,C  30,C  29,C  28)      0.5149         0.028488   
    438. D(H  70,C  30,C  25,C  26)    178.2140         0.027339   
    439. D(H  70,C  30,C  25,P  18)     -2.1078         0.027339   
    440. D(C  29,C  30,C  25,C  26)     -0.5084         0.027339   
    441. D(C  29,C  30,C  25,P  18)    179.1697         0.027339   
    442. D(C  36,C  31,P  18,C  25)   -167.4518         0.010000   
    443. D(C  36,C  31,P  18,C  19)     82.1836         0.010000   
    444. D(C  36,C  31,P  18,Ni  3)    -27.9029         0.010000   
    445. D(C  32,C  31,P  18,C  25)     13.6034         0.010000   
    446. D(C  32,C  31,P  18,C  19)    -96.7612         0.010000   
    447. D(C  32,C  31,P  18,Ni  3)    153.1523         0.010000   
    448. D(H  71,C  32,C  31,C  36)    179.2001         0.027485   
    449. D(H  71,C  32,C  31,P  18)     -1.8997         0.027485   
    450. D(C  33,C  32,C  31,C  36)      0.0522         0.027485   
    451. D(C  33,C  32,C  31,P  18)    178.9525         0.027485   
    452. D(H  72,C  33,C  32,H  71)      0.4369         0.027939   
    453. D(H  72,C  33,C  32,C  31)    179.5841         0.027939   
    454. D(C  34,C  33,C  32,H  71)   -179.2193         0.027939   
    455. D(C  34,C  33,C  32,C  31)     -0.0722         0.027939   
    456. D(H  73,C  34,C  33,H  72)      0.0114         0.027884   
    457. D(H  73,C  34,C  33,C  32)    179.6668         0.027884   
    458. D(C  35,C  34,C  33,H  72)   -179.5187         0.027884   
    459. D(C  35,C  34,C  33,C  32)      0.1367         0.027884   
    460. D(H  74,C  35,C  34,H  73)     -0.2462         0.028052   
    461. D(H  74,C  35,C  34,C  33)    179.2845         0.028052   
    462. D(C  36,C  35,C  34,H  73)   -179.7108         0.028052   
    463. D(C  36,C  35,C  34,C  33)     -0.1801         0.028052   
    464. D(P  37,C  36,C  35,C  34)    178.6762         0.027638   
    465. D(C  31,C  36,C  35,H  74)   -179.3080         0.027638   
    466. D(C  31,C  36,C  35,C  34)      0.1608         0.027638   
    467. D(P  37,C  36,C  31,C  32)   -178.7347         0.025314   
    468. D(P  37,C  36,C  31,P  18)      2.2588         0.025314   
    469. D(C  35,C  36,C  31,C  32)     -0.0973         0.025314   
    470. D(P  37,C  36,C  35,H  74)     -0.7925         0.027638   
    471. D(C  35,C  36,C  31,P  18)   -179.1038         0.025314   
    472. D(C  44,P  37,C  36,C  35)    -29.3457         0.010000   
    473. D(C  38,P  37,C  36,C  35)     78.1595         0.010000   
    474. D(C  38,P  37,C  36,C  31)   -103.2620         0.010000   
    475. D(Ni  3,P  37,C  36,C  35)   -154.1930         0.010000   
    476. D(C  44,P  37,N   4,C  12)   -150.8157         0.010000   
    477. D(C  44,P  37,N   4,C   5)      8.0098         0.010000   
    478. D(C  38,P  37,N   4,C  12)     79.4388         0.010000   
    479. D(C  38,P  37,N   4,C   5)   -121.7358         0.010000   
    480. D(C  36,P  37,N   4,C  12)    -37.0159         0.010000   
    481. D(C  36,P  37,N   4,C   5)    121.8095         0.010000   
    482. D(C  44,P  37,Ni  3,C   1)     23.3492         0.010000   
    483. D(C  38,P  37,Ni  3,P  18)     83.7241         0.010000   
    484. D(C  38,P  37,Ni  3,C   5)   -121.9358         0.010000   
    485. D(C  38,P  37,Ni  3,O   2)    -97.0804         0.010000   
    486. D(Ni  3,P  37,C  36,C  31)     24.3855         0.010000   
    487. D(C  38,P  37,Ni  3,C   1)   -106.7215         0.010000   
    488. D(C  36,P  37,Ni  3,P  18)    -32.3437         0.010000   
    489. D(C  36,P  37,Ni  3,C   5)    121.9964         0.010000   
    490. D(C  44,P  37,C  36,C  31)    149.2328         0.010000   
    491. D(C  36,P  37,Ni  3,O   2)    146.8518         0.010000   
    492. D(C  36,P  37,Ni  3,C   1)    137.2106         0.010000   
    493. D(C  43,C  38,P  37,C  44)    -75.1979         0.010000   
    494. D(C  43,C  38,P  37,C  36)    177.9535         0.010000   
    495. D(C  43,C  38,P  37,Ni  3)     61.2387         0.010000   
    496. D(C  39,C  38,P  37,C  44)    107.9224         0.010000   
    497. D(C  39,C  38,P  37,C  36)      1.0738         0.010000   
    498. D(C  39,C  38,P  37,Ni  3)   -115.6410         0.010000   
    499. D(H  75,C  39,C  38,C  43)   -179.2329         0.027311   
    500. D(H  75,C  39,C  38,P  37)     -2.4829         0.027311   
    501. D(C  40,C  39,C  38,C  43)      0.5298         0.027311   
    502. D(C  40,C  39,C  38,P  37)    177.2798         0.027311   
    503. D(H  76,C  40,C  39,H  75)     -0.2140         0.028338   
    504. D(H  76,C  40,C  39,C  38)   -179.9770         0.028338   
    505. D(C  41,C  40,C  39,H  75)    179.7240         0.028338   
    506. D(C  41,C  40,C  39,C  38)     -0.0390         0.028338   
    507. D(H  77,C  41,C  40,H  76)      0.0178         0.028165   
    508. D(H  77,C  41,C  40,C  39)   -179.9200         0.028165   
    509. D(C  42,C  41,C  40,H  76)    179.8148         0.028165   
    510. D(C  42,C  41,C  40,C  39)     -0.1230         0.028165   
    511. D(H  78,C  42,C  41,H  77)     -0.0076         0.027704   
    512. D(H  78,C  42,C  41,C  40)   -179.8044         0.027704   
    513. D(C  43,C  42,C  41,H  77)    179.5876         0.027704   
    514. D(C  43,C  42,C  41,C  40)     -0.2092         0.027704   
    515. D(H  79,C  43,C  42,H  78)      0.6674         0.028996   
    516. D(H  79,C  43,C  42,C  41)   -178.9278         0.028996   
    517. D(C  38,C  43,C  42,H  78)   -179.7044         0.028996   
    518. D(C  38,C  43,C  42,C  41)      0.7003         0.028996   
    519. D(H  79,C  43,C  38,C  39)    178.7731         0.026274   
    520. D(H  79,C  43,C  38,P  37)      1.7503         0.026274   
    521. D(C  42,C  43,C  38,C  39)     -0.8635         0.026274   
    522. D(C  42,C  43,C  38,P  37)   -177.8863         0.026274   
    523. D(C  45,C  44,P  37,Ni  3)   -148.8560         0.010000   
    524. D(C  49,C  44,P  37,C  38)    169.1482         0.010000   
    525. D(C  49,C  44,P  37,C  36)    -83.3986         0.010000   
    526. D(C  49,C  44,P  37,Ni  3)     31.5808         0.010000   
    527. D(C  45,C  44,P  37,C  38)    -11.2886         0.010000   
    528. D(C  45,C  44,P  37,C  36)     96.1646         0.010000   
    529. D(H  80,C  45,C  44,C  49)   -179.3618         0.027010   
    530. D(H  80,C  45,C  44,P  37)      1.0906         0.027010   
    531. D(C  46,C  45,C  44,C  49)      0.2239         0.027010   
    532. D(C  46,C  45,C  44,P  37)   -179.3238         0.027010   
    533. D(H  81,C  46,C  45,H  80)     -0.2325         0.028376   
    534. D(H  81,C  46,C  45,C  44)   -179.8178         0.028376   
    535. D(C  47,C  46,C  45,H  80)    179.4078         0.028376   
    536. D(C  47,C  46,C  45,C  44)     -0.1775         0.028376   
    537. D(H  82,C  47,C  46,H  81)      0.2031         0.028020   
    538. D(H  82,C  47,C  46,C  45)   -179.4360         0.028020   
    539. D(C  48,C  47,C  46,H  81)    179.6900         0.028020   
    540. D(C  48,C  47,C  46,C  45)      0.0508         0.028020   
    541. D(H  83,C  48,C  47,H  82)      0.2325         0.027880   
    542. D(H  83,C  48,C  47,C  46)   -179.2538         0.027880   
    543. D(C  49,C  48,C  47,H  82)    179.5164         0.027880   
    544. D(C  49,C  48,C  47,C  46)      0.0301         0.027880   
    545. D(H  84,C  49,C  48,H  83)      0.6645         0.028947   
    546. D(H  84,C  49,C  48,C  47)   -178.6197         0.028947   
    547. D(C  44,C  49,C  48,H  83)    179.3012         0.028947   
    548. D(C  44,C  49,C  48,C  47)      0.0170         0.028947   
    549. D(H  84,C  49,C  44,C  45)    178.5128         0.026621   
    550. D(H  84,C  49,C  44,P  37)     -1.9066         0.026621   
    551. D(C  48,C  49,C  44,C  45)     -0.1445         0.026621   
    552. D(C  48,C  49,C  44,P  37)    179.4361         0.026621   
    -----------------------------------------------------------------

Number of atoms                         .... 85
Number of degrees of freedom            .... 552


         *************************************************************
         *                GEOMETRY OPTIMIZATION CYCLE   1            *
         *************************************************************
---------------------------------
CARTESIAN COORDINATES (ANGSTROEM)
---------------------------------
  O     -7.588326   -1.768736   -6.239673
  C     -6.436982   -1.428971   -6.081466
  O     -5.995562   -0.838567   -5.024041
  Ni    -4.193078   -0.679002   -4.897214
  N     -4.138375   -0.954593   -6.732843
  C     -5.331863   -1.703024   -7.140984
  C     -5.847184   -1.273521   -8.487737
  C     -5.751791    0.053648   -8.886979
  C     -6.267675    0.455683  -10.104259
  C     -6.896470   -0.459775  -10.931182
  C     -7.010374   -1.779603  -10.530715
  C     -6.487247   -2.185006   -9.316405
  C     -3.097295   -0.937361   -7.620837
  C     -2.187209    0.135298   -7.606189
  C     -1.157725    0.224430   -8.517181
  C     -0.985240   -0.756167   -9.479699
  C     -1.875222   -1.817725   -9.519560
  C     -2.912651   -1.913805   -8.618098
  P     -2.027990   -0.502764   -4.637119
  C     -1.675227    1.235973   -4.219268
  C     -2.648207    2.172588   -4.556644
  C     -2.488548    3.500648   -4.209543
  C     -1.359287    3.896782   -3.511518
  C     -0.397504    2.964821   -3.155318
  C     -0.553163    1.634354   -3.501221
  C     -0.621697   -1.154390   -5.581659
  C     -0.729932   -2.482619   -5.984017
  C      0.290471   -3.075791   -6.700705
  C      1.426154   -2.346045   -7.013881
  C      1.535685   -1.024451   -6.614338
  C      0.513448   -0.422100   -5.903153
  C     -1.709160   -1.229145   -2.983180
  C     -0.517637   -1.820035   -2.586460
  C     -0.391686   -2.315216   -1.298286
  C     -1.446329   -2.223080   -0.403637
  C     -2.639745   -1.636121   -0.791289
  C     -2.772095   -1.137603   -2.079025
  P     -4.296226   -0.373219   -2.729231
  C     -4.268537    1.298971   -2.017316
  C     -3.256356    1.784776   -1.199998
  C     -3.305519    3.094792   -0.756281
  C     -4.356024    3.918637   -1.124156
  C     -5.366023    3.436209   -1.943072
  C     -5.319957    2.132065   -2.395223
  C     -5.598182   -1.215606   -1.785556
  C     -6.176435   -0.695086   -0.633535
  C     -7.154237   -1.418501    0.026430
  C     -7.558233   -2.651926   -0.458225
  C     -6.984457   -3.171017   -1.608241
  C     -6.006759   -2.454677   -2.270745
  H     -5.174566   -2.796241   -7.134289
  H     -5.267621    0.768099   -8.237344
  H     -6.183556    1.489601  -10.407880
  H     -7.300746   -0.144451  -11.882428
  H     -7.507750   -2.497256  -11.167609
  H     -6.583892   -3.215261   -9.004476
  H     -2.339371    0.930749   -6.884110
  H     -0.486455    1.071832   -8.482101
  H     -0.177539   -0.689566  -10.192868
  H     -1.755797   -2.588779  -10.268154
  H     -3.586841   -2.752344   -8.688525
  H     -3.540183    1.835728   -5.087188
  H     -3.245156    4.223893   -4.473497
  H     -1.231860    4.932922   -3.235948
  H      0.475283    3.275533   -2.599723
  H      0.186607    0.903645   -3.203914
  H     -1.630180   -3.033599   -5.740543
  H      0.200469   -4.102692   -7.021584
  H      2.223490   -2.805728   -7.578352
  H      2.418742   -0.456015   -6.866985
  H      0.588411    0.616966   -5.617592
  H      0.303710   -1.905718   -3.284365
  H      0.533773   -2.780793   -0.993128
  H     -1.341040   -2.616507    0.596452
  H     -3.470179   -1.571461   -0.101853
  H     -2.432651    1.145656   -0.914637
  H     -2.518394    3.473493   -0.120827
  H     -4.386518    4.940046   -0.774840
  H     -6.183081    4.080596   -2.231831
  H     -6.088332    1.738929   -3.049390
  H     -5.868456    0.271872   -0.259934
  H     -7.607035   -1.014447    0.920288
  H     -8.328386   -3.206126    0.057521
  H     -7.308617   -4.126799   -1.991679
  H     -5.564266   -2.836493   -3.183250

----------------------------
CARTESIAN COORDINATES (A.U.)
----------------------------
  NO LB      ZA    FRAG     MASS         X           Y           Z
   0 O     8.0000    0    15.999  -14.339858   -3.342427  -11.791273
   1 C     6.0000    0    12.011  -12.164133   -2.700364  -11.492305
   2 O     8.0000    0    15.999  -11.329970   -1.584662   -9.494062
   3 Ni   28.0000    0    58.700   -7.923769   -1.283128   -9.254393
   4 N     7.0000    0    14.007   -7.820395   -1.803919  -12.723229
   5 C     6.0000    0    12.011  -10.075761   -3.218249  -13.494504
   6 C     6.0000    0    12.011  -11.049576   -2.406606  -16.039498
   7 C     6.0000    0    12.011  -10.869310    0.101380  -16.793956
   8 C     6.0000    0    12.011  -11.844189    0.861116  -19.094282
   9 C     6.0000    0    12.011  -13.032440   -0.868849  -20.656940
  10 C     6.0000    0    12.011  -13.247687   -3.362962  -19.900167
  11 C     6.0000    0    12.011  -12.259120   -4.129063  -17.605454
  12 C     6.0000    0    12.011   -5.853039   -1.771356  -14.401295
  13 C     6.0000    0    12.011   -4.133226    0.255676  -14.373614
  14 C     6.0000    0    12.011   -2.187783    0.424111  -16.095140
  15 C     6.0000    0    12.011   -1.861834   -1.428949  -17.914035
  16 C     6.0000    0    12.011   -3.543656   -3.435002  -17.989361
  17 C     6.0000    0    12.011   -5.504113   -3.616567  -16.285845
  18 P    15.0000    0    30.974   -3.832346   -0.950086   -8.762885
  19 C     6.0000    0    12.011   -3.165720    2.335650   -7.973261
  20 C     6.0000    0    12.011   -5.004386    4.105596   -8.610809
  21 C     6.0000    0    12.011   -4.702674    6.615266   -7.954883
  22 C     6.0000    0    12.011   -2.568680    7.363851   -6.635807
  23 C     6.0000    0    12.011   -0.751174    5.602700   -5.962687
  24 C     6.0000    0    12.011   -1.045327    3.088481   -6.616349
  25 C     6.0000    0    12.011   -1.174837   -2.181481  -10.547807
  26 C     6.0000    0    12.011   -1.379372   -4.691470  -11.308153
  27 C     6.0000    0    12.011    0.548911   -5.812403  -12.662497
  28 C     6.0000    0    12.011    2.695040   -4.433383  -13.254314
  29 C     6.0000    0    12.011    2.902024   -1.935932  -12.499287
  30 C     6.0000    0    12.011    0.970276   -0.797653  -11.155342
  31 C     6.0000    0    12.011   -3.229844   -2.322747   -5.637393
  32 C     6.0000    0    12.011   -0.978192   -3.439368   -4.887701
  33 C     6.0000    0    12.011   -0.740179   -4.375124   -2.453405
  34 C     6.0000    0    12.011   -2.733166   -4.201012   -0.762763
  35 C     6.0000    0    12.011   -4.988395   -3.091821   -1.495320
  36 C     6.0000    0    12.011   -5.238500   -2.149758   -3.928788
  37 P    15.0000    0    30.974   -8.118691   -0.705282   -5.157499
  38 C     6.0000    0    12.011   -8.066366    2.454699   -3.812175
  39 C     6.0000    0    12.011   -6.153621    3.372738   -2.267668
  40 C     6.0000    0    12.011   -6.246526    5.848309   -1.429164
  41 C     6.0000    0    12.011   -8.231692    7.405151   -2.124347
  42 C     6.0000    0    12.011  -10.140314    6.493494   -3.671874
  43 C     6.0000    0    12.011  -10.053262    4.029019   -4.526315
  44 C     6.0000    0    12.011  -10.579031   -2.297162   -3.374212
  45 C     6.0000    0    12.011  -11.671771   -1.313522   -1.197208
  46 C     6.0000    0    12.011  -13.519549   -2.680578    0.049945
  47 C     6.0000    0    12.011  -14.282990   -5.011414   -0.865920
  48 C     6.0000    0    12.011  -13.198711   -5.992354   -3.039135
  49 C     6.0000    0    12.011  -11.351129   -4.638667   -4.291086
  50 H     1.0000    0     1.008   -9.778513   -5.284130  -13.481852
  51 H     1.0000    0     1.008   -9.954361    1.451497  -15.566324
  52 H     1.0000    0     1.008  -11.685227    2.814938  -19.668043
  53 H     1.0000    0     1.008  -13.796411   -0.272973  -22.454535
  54 H     1.0000    0     1.008  -14.187591   -4.719130  -21.103723
  55 H     1.0000    0     1.008  -12.441753   -6.075963  -17.015994
  56 H     1.0000    0     1.008   -4.420771    1.758861  -13.009083
  57 H     1.0000    0     1.008   -0.919267    2.025469  -16.028848
  58 H     1.0000    0     1.008   -0.335500   -1.303091  -19.261729
  59 H     1.0000    0     1.008   -3.317975   -4.892083  -19.403999
  60 H     1.0000    0     1.008   -6.778147   -5.201176  -16.418933
  61 H     1.0000    0     1.008   -6.689976    3.469023   -9.613392
  62 H     1.0000    0     1.008   -6.132456    7.982001   -8.453684
  63 H     1.0000    0     1.008   -2.327878    9.321872   -6.115056
  64 H     1.0000    0     1.008    0.898155    6.189860   -4.912764
  65 H     1.0000    0     1.008    0.352636    1.707642   -6.054520
  66 H     1.0000    0     1.008   -3.080594   -5.732671  -10.848054
  67 H     1.0000    0     1.008    0.378832   -7.752964  -13.268871
  68 H     1.0000    0     1.008    4.201787   -5.302058  -14.321010
  69 H     1.0000    0     1.008    4.570760   -0.861743  -12.976721
  70 H     1.0000    0     1.008    1.111936    1.165897  -10.615710
  71 H     1.0000    0     1.008    0.573929   -3.601285   -6.206550
  72 H     1.0000    0     1.008    1.008685   -5.254937   -1.876740
  73 H     1.0000    0     1.008   -2.534198   -4.944482    1.127131
  74 H     1.0000    0     1.008   -6.557688   -2.969631   -0.192474
  75 H     1.0000    0     1.008   -4.597044    2.164976   -1.728413
  76 H     1.0000    0     1.008   -4.759075    6.563950   -0.228330
  77 H     1.0000    0     1.008   -8.289318    9.335334   -1.464235
  78 H     1.0000    0     1.008  -11.684330    7.711209   -4.217549
  79 H     1.0000    0     1.008  -11.505280    3.286100   -5.762512
  80 H     1.0000    0     1.008  -11.089775    0.513764   -0.491204
  81 H     1.0000    0     1.008  -14.375213   -1.917027    1.739092
  82 H     1.0000    0     1.008  -15.738369   -6.058700    0.108699
  83 H     1.0000    0     1.008  -13.811285   -7.798520   -3.763728
  84 H     1.0000    0     1.008  -10.514939   -5.360195   -6.015471

--------------------------------
INTERNAL COORDINATES (ANGSTROEM)
--------------------------------
 O      0   0   0     0.000000000000     0.00000000     0.00000000
 C      1   0   0     1.210810768209     0.00000000     0.00000000
 O      2   1   0     1.289021384711   124.14848984     0.00000000
 Ni     3   2   1     1.813972063569   115.97136499   170.06851225
 N      4   3   2     1.857007442939    86.96791189    19.62406114
 C      5   4   3     1.466677075496   109.07659000   335.04337541
 C      6   5   4     1.504583730824   112.46512646   144.09916556
 C      7   6   5     1.389198169296   120.42706159   325.52985637
 C      8   7   6     1.381860716961   120.36276931   182.28246909
 C      9   8   7     1.384647301560   120.21603465     0.64127607
 C     10   9   8     1.383941432608   119.67525499     0.22985971
 C     11  10   9     1.382954166499   120.16617585   359.37091536
 C      5   4   3     1.368458202599   131.45047185   176.05377934
 C     13   5   4     1.406793667025   119.66994153   311.56278828
 C     14  13   5     1.377566057851   121.72935349   182.79506905
 C     15  14  13     1.384833005080   120.45761504   359.65816058
 C     16  15  14     1.385843514618   118.84278905     0.77932005
 C     17  16  15     1.377724222726   121.20983109   359.55798426
 P      4   3   2     2.187764907254   177.15265038   216.41643014
 C     19   4   3     1.822703362464   107.19543164   273.64125912
 C     20  19   4     1.392034591525   116.80826300   339.69849417
 C     21  20  19     1.381923827163   120.33035309   176.52183868
 C     22  21  20     1.385421038061   119.70320399   359.40316591
 C     23  22  21     1.385805283801   120.19306449   359.60414719
 C     24  23  22     1.383481495279   120.29044804     0.42092113
 C     19   4   3     1.815057094784   132.52981764   137.02231057
 C     26  19   4     1.392048509151   115.64057250   316.34666177
 C     27  26  19     1.380839235153   120.16164110   180.41442443
 C     28  27  26     1.385779314314   119.78137398     0.26529585
 C     29  28  27     1.385006263396   120.13924224   359.73935446
 C     30  29  28     1.383321840930   120.35600956   359.86859565
 C     19   4   3     1.834338066383   104.31810089    16.78724349
 C     32  19   4     1.387899423600   125.13749398   153.15229319
 C     33  32  19     1.385806671740   119.72640624   178.95249589
 C     34  33  32     1.386058344063   120.46961036   359.92782462
 C     35  34  33     1.385292997832   120.20166974     0.13672443
 C     36  35  34     1.387191668271   119.61920235   359.81987747
 P     37  36  35     1.824835895924   124.12382863   178.67621139
 C     38  37  36     1.817638314970   103.47849203    78.15949141
 C     39  38  37     1.388713645036   124.29463650     1.07378071
 C     40  39  38     1.383995555236   119.59880603   177.27981269
 C     41  40  39     1.384779171809   120.32501291   359.96097705
 C     42  41  40     1.386887944371   120.15703928   359.87701220
 C     43  42  41     1.381069938813   119.83461818   359.79078220
 C     38  37  36     1.815276229484   102.67522858   330.65428683
 C     45  38  37     1.390133082424   123.73760902    96.16461013
 C     46  45  38     1.383827957029   119.56438348   180.67619681
 C     47  46  45     1.385438727503   120.30574888   359.82253436
 C     48  47  46     1.386077618574   120.19501257     0.05082217
 C     49  48  47     1.381284881847   119.78392121     0.03008783
 H      6   5   4     1.104495621686   112.79929114   268.78688781
 H      8   7   6     1.080225186489   119.32766664     2.45404610
 H      9   8   7     1.080855285654   119.78193362   180.32859958
 H     10   9   8     1.080618925278   120.17746570   179.92446722
 H     11  10   9     1.080760232901   120.04079893   179.45850927
 H     12  11  10     1.080770707454   119.93633277   179.60665802
 H     14  13   5     1.085031635431   118.37200902   359.82379982
 H     15  14  13     1.081630329135   119.54044121   179.16440139
 H     16  15  14     1.079549267594   120.57466656   180.16425163
 H     17  16  15     1.081286076104   119.68374338   179.73816304
 H     18  17  16     1.078257748848   118.83691550   179.55921212
 H     21  20  19     1.091133713214   118.78389429   357.25664018
 H     22  21  20     1.079449262265   120.09923910   179.96788974
 H     23  22  21     1.079704850794   119.94607611   180.16884566
 H     24  23  22     1.080270752329   119.96645025   180.80647622
 H     25  24  23     1.081474339885   120.26979454   181.37430729
 H     27  26  19     1.083192046952   119.01213115     1.41662961
 H     28  27  26     1.079624636828   120.08287705   180.67987880
 H     29  28  27     1.079666924207   119.94508799   180.30263999
 H     30  29  28     1.080157237607   119.95614496   180.49712507
 H     31  30  29     1.080195671370   120.23094886   181.79305542
 H     33  32  19     1.081214067575   120.09271705   358.10033956
 H     34  33  32     1.079980420459   119.64178346   179.58406998
 H     35  34  33     1.079837295971   119.95928761   179.66680967
 H     36  35  34     1.081260163907   120.56760331   179.28449669
 H     40  39  38     1.080923309836   120.26192985   357.51713281
 H     41  40  39     1.080176836977   119.64167954   180.02299506
 H     42  41  40     1.079920319826   119.88002991   180.08002227
 H     43  42  41     1.079907468820   120.08712554   180.19556986
 H     44  43  42     1.083000701297   121.12297555   181.07218781
 H     46  45  38     1.081404894295   120.17527076     1.09056682
 H     47  46  45     1.080401678953   119.68269544   180.18218057
 H     48  47  46     1.079938525993   119.85196269   180.56395884
 H     49  48  47     1.079640512841   120.12695061   180.74617205
 H     50  49  48     1.083627651885   120.67653253   181.38025391

---------------------------
INTERNAL COORDINATES (A.U.)
---------------------------
 O      0   0   0     0.000000000000     0.00000000     0.00000000
 C      1   0   0     2.288100751917     0.00000000     0.00000000
 O      2   1   0     2.435897397871   124.14848984     0.00000000
 Ni     3   2   1     3.427910414730   115.97136499   170.06851225
 N      4   3   2     3.509235495808    86.96791189    19.62406114
 C      5   4   3     2.771617999588   109.07659000   335.04337541
 C      6   5   4     2.843251196810   112.46512646   144.09916556
 C      7   6   5     2.625204085713   120.42706159   325.52985637
 C      8   7   6     2.611338310281   120.36276931   182.28246909
 C      9   8   7     2.616604192022   120.21603465     0.64127607
 C     10   9   8     2.615270293016   119.67525499     0.22985971
 C     11  10   9     2.613404630449   120.16617585   359.37091536
 C      5   4   3     2.586011228630   131.45047185   176.05377934
 C     13   5   4     2.658454757612   119.66994153   311.56278828
 C     14  13   5     2.603222580724   121.72935349   182.79506905
 C     15  14  13     2.616955120816   120.45761504   359.65816058
 C     16  15  14     2.618864707099   118.84278905     0.77932005
 C     17  16  15     2.603521469021   121.20983109   359.55798426
 P      4   3   2     4.134276520114   177.15265038   216.41643014
 C     19   4   3     3.444410178435   107.19543164   273.64125912
 C     20  19   4     2.630564146926   116.80826300   339.69849417
 C     21  20  19     2.611457571279   120.33035309   176.52183868
 C     22  21  20     2.618066342108   119.70320399   359.40316591
 C     23  22  21     2.618792461324   120.19306449   359.60414719
 C     24  23  22     2.614401137425   120.29044804     0.42092113
 C     19   4   3     3.429960826572   132.52981764   137.02231057
 C     26  19   4     2.630590447429   115.64057250   316.34666177
 C     27  26  19     2.609407989412   120.16164110   180.41442443
 C     28  27  26     2.618743386107   119.78137398     0.26529585
 C     29  28  27     2.617282531584   120.13924224   359.73935446
 C     30  29  28     2.614099434430   120.35600956   359.86859565
 C     19   4   3     3.466396582491   104.31810089    16.78724349
 C     32  19   4     2.622749812031   125.13749398   153.15229319
 C     33  32  19     2.618795084149   119.72640624   178.95249589
 C     34  33  32     2.619270675915   120.46961036   359.92782462
 C     35  34  33     2.617824381140   120.20166974     0.13672443
 C     36  35  34     2.621412348289   119.61920235   359.81987747
 P     37  36  35     3.448440082645   124.12382863   178.67621139
 C     38  37  36     3.434838625815   103.47849203    78.15949141
 C     39  38  37     2.624288467558   124.29463650     1.07378071
 C     40  39  38     2.615372569961   119.59880603   177.27981269
 C     41  40  39     2.616853390677   120.32501291   359.96097705
 C     42  41  40     2.620838393298   120.15703928   359.87701220
 C     43  42  41     2.609843956148   119.83461818   359.79078220
 C     38  37  36     3.430374931142   102.67522858   330.65428683
 C     45  38  37     2.626970815485   123.73760902    96.16461013
 C     46  45  38     2.615055855248   119.56438348   180.67619681
 C     47  46  45     2.618099770310   120.30574888   359.82253436
 C     48  47  46     2.619307099463   120.19501257     0.05082217
 C     49  48  47     2.610250139617   119.78392121     0.03008783
 H      6   5   4     2.087194241101   112.79929114   268.78688781
 H      8   7   6     2.041329765429   119.32766664     2.45404610
 H      9   8   7     2.042520480287   119.78193362   180.32859958
 H     10   9   8     2.042073823907   120.17746570   179.92446722
 H     11  10   9     2.042340856617   120.04079893   179.45850927
 H     12  11  10     2.042360650653   119.93633277   179.60665802
 H     14  13   5     2.050412637605   118.37200902   359.82379982
 H     15  14  13     2.043985100208   119.54044121   179.16440139
 H     16  15  14     2.040052463828   120.57466656   180.16425163
 H     17  16  15     2.043334556259   119.68374338   179.73816304
 H     18  17  16     2.037611847100   118.83691550   179.55921212
 H     21  20  19     2.061943893463   118.78389429   357.25664018
 H     22  21  20     2.039863481145   120.09923910   179.96788974
 H     23  22  21     2.040346473468   119.94607611   180.16884566
 H     24  23  22     2.041415872387   119.96645025   180.80647622
 H     25  24  23     2.043690323246   120.26979454   181.37430729
 H     27  26  19     2.046936319181   119.01213115     1.41662961
 H     28  27  26     2.040194891039   120.08287705   180.67987880
 H     29  28  27     2.040274802604   119.94508799   180.30263999
 H     30  29  28     2.041201360649   119.95614496   180.49712507
 H     31  30  29     2.041273989936   120.23094886   181.79305542
 H     33  32  19     2.043198479861   120.09271705   358.10033956
 H     34  33  32     2.040867224664   119.64178346   179.58406998
 H     35  34  33     2.040596758580   119.95928761   179.66680967
 H     36  35  34     2.043285589303   120.56760331   179.28449669
 H     40  39  38     2.042649027361   120.26192985   357.51713281
 H     41  40  39     2.041238398092   119.64167954   180.02299506
 H     42  41  40     2.040753650928   119.88002991   180.08002227
 H     43  42  41     2.040729366047   120.08712554   180.19556986
 H     44  43  42     2.046574728296   121.12297555   181.07218781
 H     46  45  38     2.043559090100   120.17527076     1.09056682
[...]
      pz      :     0.008595  p :     0.042350
      px      :     0.007223
      py      :     0.026532

 51 H s       :     0.770385  s :     0.770385
      pz      :     0.015091  p :     0.045713
      px      :     0.017756
      py      :     0.012866

 52 H s       :     0.791650  s :     0.791650
      pz      :     0.009286  p :     0.043683
      px      :     0.009275
      py      :     0.025123

 53 H s       :     0.791707  s :     0.791707
      pz      :     0.022306  p :     0.043883
      px      :     0.011568
      py      :     0.010009

 54 H s       :     0.790806  s :     0.790806
      pz      :     0.013364  p :     0.043749
      px      :     0.016620
      py      :     0.013765

 55 H s       :     0.781600  s :     0.781600
      pz      :     0.009684  p :     0.044059
      px      :     0.009236
      py      :     0.025139

 56 H s       :     0.775734  s :     0.775734
      pz      :     0.016258  p :     0.045334
      px      :     0.007518
      py      :     0.021558

 57 H s       :     0.789865  s :     0.789865
      pz      :     0.007828  p :     0.043556
      px      :     0.018185
      py      :     0.017543

 58 H s       :     0.790886  s :     0.790886
      pz      :     0.017575  p :     0.044472
      px      :     0.018978
      py      :     0.007919

 59 H s       :     0.790860  s :     0.790860
      pz      :     0.016052  p :     0.043566
      px      :     0.007402
      py      :     0.020112

 60 H s       :     0.779993  s :     0.779993
      pz      :     0.008720  p :     0.045798
      px      :     0.019587
      py      :     0.017491

 61 H s       :     0.765924  s :     0.765924
      pz      :     0.014793  p :     0.047209
      px      :     0.022313
      py      :     0.010102

 62 H s       :     0.780346  s :     0.780346
      pz      :     0.011446  p :     0.044239
      px      :     0.016841
      py      :     0.015951

 63 H s       :     0.784389  s :     0.784389
      pz      :     0.008463  p :     0.044025
      px      :     0.007637
      py      :     0.027925

 64 H s       :     0.784591  s :     0.784591
      pz      :     0.015345  p :     0.044142
      px      :     0.019726
      py      :     0.009071

 65 H s       :     0.774474  s :     0.774474
      pz      :     0.012688  p :     0.045333
      px      :     0.015956
      py      :     0.016689

 66 H s       :     0.770974  s :     0.770974
      pz      :     0.008304  p :     0.045003
      px      :     0.025231
      py      :     0.011468

 67 H s       :     0.781447  s :     0.781447
      pz      :     0.011341  p :     0.044102
      px      :     0.007498
      py      :     0.025263

 68 H s       :     0.784962  s :     0.784962
      pz      :     0.014282  p :     0.044004
      px      :     0.018368
      py      :     0.011354

 69 H s       :     0.785014  s :     0.785014
      pz      :     0.008781  p :     0.044118
      px      :     0.023265
      py      :     0.012072

 70 H s       :     0.770639  s :     0.770639
      pz      :     0.011333  p :     0.046325
      px      :     0.007392
      py      :     0.027600

 71 H s       :     0.767482  s :     0.767482
      pz      :     0.016933  p :     0.046135
      px      :     0.020703
      py      :     0.008498

 72 H s       :     0.782467  s :     0.782467
      pz      :     0.009156  p :     0.044204
      px      :     0.024086
      py      :     0.010962

 73 H s       :     0.782295  s :     0.782295
      pz      :     0.026750  p :     0.044272
      px      :     0.007037
      py      :     0.010485

 74 H s       :     0.770400  s :     0.770400
      pz      :     0.015173  p :     0.045369
      px      :     0.021952
      py      :     0.008245

 75 H s       :     0.772113  s :     0.772113
      pz      :     0.010468  p :     0.045718
      px      :     0.023501
      py      :     0.011749

 76 H s       :     0.784450  s :     0.784450
      pz      :     0.013997  p :     0.044086
      px      :     0.017385
      py      :     0.012704

 77 H s       :     0.785653  s :     0.785653
      pz      :     0.008986  p :     0.044068
      px      :     0.007736
      py      :     0.027346

 78 H s       :     0.782092  s :     0.782092
      pz      :     0.010446  p :     0.044184
      px      :     0.022570
      py      :     0.011169

 79 H s       :     0.758446  s :     0.758446
      pz      :     0.015340  p :     0.046170
      px      :     0.017416
      py      :     0.013414

 80 H s       :     0.772217  s :     0.772217
      pz      :     0.010317  p :     0.045659
      px      :     0.009198
      py      :     0.026144

 81 H s       :     0.784839  s :     0.784839
      pz      :     0.022615  p :     0.044150
      px      :     0.012170
      py      :     0.009366

 82 H s       :     0.785194  s :     0.785194
      pz      :     0.011667  p :     0.043993
      px      :     0.018057
      py      :     0.014269

 83 H s       :     0.782727  s :     0.782727
      pz      :     0.010832  p :     0.044160
      px      :     0.009115
      py      :     0.024214

 84 H s       :     0.770708  s :     0.770708
      pz      :     0.025162  p :     0.045257
      px      :     0.011607
      py      :     0.008487



                      *****************************
                      * MAYER POPULATION ANALYSIS *
                      *****************************

  NA   - Mulliken gross atomic population
  ZA   - Total nuclear charge
  QA   - Mulliken gross atomic charge
  VA   - Mayer's total valence
  BVA  - Mayer's bonded valence
  FA   - Mayer's free valence

  ATOM       NA         ZA         QA         VA         BVA        FA
  0 O      8.3774     8.0000    -0.3774     2.0527     2.0527    -0.0000
  1 C      5.8284     6.0000     0.1716     4.2231     4.2231     0.0000
  2 O      8.3525     8.0000    -0.3525     1.9011     1.9011     0.0000
  3 Ni    27.9935    28.0000     0.0065     3.6105     3.6105    -0.0000
  4 N      7.0415     7.0000    -0.0415     2.9073     2.9073     0.0000
  5 C      6.3070     6.0000    -0.3070     3.8887     3.8887     0.0000
  6 C      5.7154     6.0000     0.2846     3.3281     3.3281    -0.0000
  7 C      6.2017     6.0000    -0.2017     4.0086     4.0086    -0.0000
  8 C      6.1859     6.0000    -0.1859     3.7884     3.7884    -0.0000
  9 C      6.1484     6.0000    -0.1484     3.8222     3.8222    -0.0000
 10 C      6.1725     6.0000    -0.1725     3.8163     3.8163    -0.0000
 11 C      6.2260     6.0000    -0.2260     3.9214     3.9214    -0.0000
 12 C      5.7361     6.0000     0.2639     3.4725     3.4725    -0.0000
 13 C      6.3080     6.0000    -0.3080     3.8292     3.8292    -0.0000
 14 C      6.1869     6.0000    -0.1869     3.8499     3.8499    -0.0000
 15 C      6.1809     6.0000    -0.1809     3.7780     3.7780    -0.0000
 16 C      6.1872     6.0000    -0.1872     3.8009     3.8009    -0.0000
 17 C      6.2824     6.0000    -0.2824     3.7972     3.7972    -0.0000
 18 P     14.7056    15.0000     0.2944     4.1653     4.1653     0.0000
 19 C      5.9465     6.0000     0.0535     3.6420     3.6420     0.0000
 20 C      6.1450     6.0000    -0.1450     3.8273     3.8273    -0.0000
 21 C      6.1816     6.0000    -0.1816     3.8308     3.8308    -0.0000
 22 C      6.1283     6.0000    -0.1283     3.7864     3.7864    -0.0000
 23 C      6.1888     6.0000    -0.1888     3.8304     3.8304     0.0000
 24 C      6.2075     6.0000    -0.2075     3.8306     3.8306     0.0000
 25 C      5.8695     6.0000     0.1305     3.4086     3.4086    -0.0000
 26 C      6.1925     6.0000    -0.1925     3.9887     3.9887    -0.0000
 27 C      6.1495     6.0000    -0.1495     3.8220     3.8220    -0.0000
 28 C      6.1218     6.0000    -0.1218     3.8164     3.8164    -0.0000
 29 C      6.1962     6.0000    -0.1962     3.8216     3.8216    -0.0000
 30 C      6.1786     6.0000    -0.1786     3.8884     3.8884    -0.0000
 31 C      6.0339     6.0000    -0.0339     3.7685     3.7685     0.0000
 32 C      6.1226     6.0000    -0.1226     3.6651     3.6651     0.0000
 33 C      6.1605     6.0000    -0.1605     3.7884     3.7884     0.0000
 34 C      6.1586     6.0000    -0.1586     3.7898     3.7898    -0.0000
 35 C      6.1432     6.0000    -0.1432     3.8065     3.8065    -0.0000
 36 C      6.1987     6.0000    -0.1987     3.8153     3.8153     0.0000
 37 P     14.4990    15.0000     0.5010     3.9327     3.9327    -0.0000
 38 C      5.9588     6.0000     0.0412     3.6362     3.6362     0.0000
 39 C      6.1469     6.0000    -0.1469     3.8706     3.8706     0.0000
 40 C      6.1894     6.0000    -0.1894     3.7759     3.7759     0.0000
 41 C      6.1318     6.0000    -0.1318     3.7847     3.7847    -0.0000
 42 C      6.1865     6.0000    -0.1865     3.7929     3.7929    -0.0000
 43 C      6.1666     6.0000    -0.1666     3.8848     3.8848    -0.0000
 44 C      5.9849     6.0000     0.0151     3.6106     3.6106    -0.0000
 45 C      6.1702     6.0000    -0.1702     3.7889     3.7889    -0.0000
 46 C      6.1616     6.0000    -0.1616     3.8004     3.8004    -0.0000
 47 C      6.1275     6.0000    -0.1275     3.8258     3.8258    -0.0000
 48 C      6.1677     6.0000    -0.1677     3.8222     3.8222    -0.0000
 49 C      6.1626     6.0000    -0.1626     3.9960     3.9960    -0.0000
 50 H      0.8224     1.0000     0.1776     0.9481     0.9481     0.0000
 51 H      0.8355     1.0000     0.1645     0.9614     0.9614     0.0000
 52 H      0.8585     1.0000     0.1415     0.9712     0.9712     0.0000
 53 H      0.8564     1.0000     0.1436     0.9703     0.9703    -0.0000
 54 H      0.8575     1.0000     0.1425     0.9710     0.9710    -0.0000
 55 H      0.8487     1.0000     0.1513     0.9672     0.9672    -0.0000
 56 H      0.8453     1.0000     0.1547     0.9674     0.9674    -0.0000
 57 H      0.8573     1.0000     0.1427     0.9701     0.9701    -0.0000
 58 H      0.8562     1.0000     0.1438     0.9708     0.9708    -0.0000
 59 H      0.8562     1.0000     0.1438     0.9699     0.9699     0.0000
 60 H      0.8471     1.0000     0.1529     0.9686     0.9686     0.0000
 61 H      0.8081     1.0000     0.1919     0.9538     0.9538    -0.0000
 62 H      0.8469     1.0000     0.1531     0.9674     0.9674    -0.0000
 63 H      0.8481     1.0000     0.1519     0.9669     0.9669    -0.0000
 64 H      0.8491     1.0000     0.1509     0.9684     0.9684     0.0000
 65 H      0.8256     1.0000     0.1744     0.9563     0.9563     0.0000
 66 H      0.8278     1.0000     0.1722     0.9620     0.9620     0.0000
 67 H      0.8497     1.0000     0.1503     0.9679     0.9679    -0.0000
 68 H      0.8500     1.0000     0.1500     0.9677     0.9677    -0.0000
 69 H      0.8502     1.0000     0.1498     0.9687     0.9687    -0.0000
 70 H      0.8341     1.0000     0.1659     0.9643     0.9643     0.0000
 71 H      0.8258     1.0000     0.1742     0.9616     0.9616    -0.0000
 72 H      0.8475     1.0000     0.1525     0.9674     0.9674     0.0000
 73 H      0.8475     1.0000     0.1525     0.9677     0.9677    -0.0000
 74 H      0.8336     1.0000     0.1664     0.9644     0.9644    -0.0000
 75 H      0.8348     1.0000     0.1652     0.9623     0.9623    -0.0000
 76 H      0.8513     1.0000     0.1487     0.9680     0.9680     0.0000
 77 H      0.8488     1.0000     0.1512     0.9675     0.9675    -0.0000
 78 H      0.8457     1.0000     0.1543     0.9670     0.9670    -0.0000
 79 H      0.8035     1.0000     0.1965     0.9497     0.9497    -0.0000
 80 H      0.8339     1.0000     0.1661     0.9642     0.9642    -0.0000
 81 H      0.8499     1.0000     0.1501     0.9683     0.9683    -0.0000
 82 H      0.8493     1.0000     0.1507     0.9675     0.9675    -0.0000
 83 H      0.8486     1.0000     0.1514     0.9680     0.9680    -0.0000
 84 H      0.8351     1.0000     0.1649     0.9644     0.9644     0.0000

  Mayer bond orders larger than 0.100000
B(  0-O ,  1-C ) :   1.9667 B(  1-C ,  2-O ) :   1.2879 B(  1-C ,  5-C ) :   0.9640 
B(  2-O ,  3-Ni) :   0.5259 B(  3-Ni,  4-N ) :   0.7685 B(  3-Ni, 18-P ) :   1.0644 
B(  3-Ni, 37-P ) :   1.0027 B(  4-N ,  5-C ) :   1.0709 B(  4-N ,  6-C ) :  -0.1112 
B(  4-N , 12-C ) :   0.8459 B(  5-C ,  6-C ) :   0.7295 B(  5-C , 50-H ) :   0.9801 
B(  6-C ,  7-C ) :   1.4620 B(  6-C , 11-C ) :   1.4007 B(  6-C , 50-H ) :  -0.1110 
B(  7-C ,  8-C ) :   1.4115 B(  7-C , 51-H ) :   0.9461 B(  8-C ,  9-C ) :   1.4129 
B(  8-C , 52-H ) :   0.9486 B(  9-C , 10-C ) :   1.4243 B(  9-C , 53-H ) :   0.9431 
B( 10-C , 11-C ) :   1.4068 B( 10-C , 54-H ) :   0.9437 B( 11-C , 55-H ) :   0.9344 
B( 12-C , 13-C ) :   1.2932 B( 12-C , 17-C ) :   1.3198 B( 13-C , 14-C ) :   1.4418 
B( 13-C , 56-H ) :   0.9657 B( 14-C , 15-C ) :   1.3845 B( 14-C , 57-H ) :   0.9264 
B( 15-C , 16-C ) :   1.4017 B( 15-C , 58-H ) :   0.9443 B( 16-C , 17-C ) :   1.3843 
B( 16-C , 59-H ) :   0.9483 B( 17-C , 60-H ) :   0.9428 B( 18-P , 19-C ) :   0.8768 
B( 18-P , 25-C ) :   0.6659 B( 18-P , 31-C ) :   1.0381 B( 18-P , 37-P ) :   0.1214 
B( 19-C , 20-C ) :   1.3810 B( 19-C , 24-C ) :   1.3377 B( 20-C , 21-C ) :   1.4279 
B( 20-C , 61-H ) :   0.9262 B( 21-C , 22-C ) :   1.3921 B( 21-C , 62-H ) :   0.9428 
B( 22-C , 23-C ) :   1.3984 B( 22-C , 63-H ) :   0.9482 B( 23-C , 24-C ) :   1.4325 
B( 23-C , 64-H ) :   0.9481 B( 24-C , 65-H ) :   0.9200 B( 25-C , 26-C ) :   1.4142 
B( 25-C , 30-C ) :   1.3921 B( 26-C , 27-C ) :   1.4255 B( 26-C , 66-H ) :   0.9218 
B( 27-C , 28-C ) :   1.4002 B( 27-C , 67-H ) :   0.9373 B( 28-C , 29-C ) :   1.4103 
B( 28-C , 68-H ) :   0.9459 B( 29-C , 30-C ) :   1.4184 B( 29-C , 69-H ) :   0.9440 
B( 30-C , 70-H ) :   0.9273 B( 31-C , 32-C ) :   1.3290 B( 31-C , 36-C ) :   1.3724 
B( 32-C , 33-C ) :   1.3823 B( 32-C , 71-H ) :   0.9233 B( 33-C , 34-C ) :   1.3884 
B( 33-C , 72-H ) :   0.9519 B( 34-C , 35-C ) :   1.3911 B( 34-C , 73-H ) :   0.9523 
B( 35-C , 36-C ) :   1.4141 B( 35-C , 74-H ) :   0.9082 B( 36-C , 37-P ) :   0.9516 
B( 37-P , 38-C ) :   0.7841 B( 37-P , 44-C ) :   0.7674 B( 38-C , 39-C ) :   1.3759 
B( 38-C , 43-C ) :   1.3954 B( 39-C , 40-C ) :   1.3987 B( 39-C , 75-H ) :   0.9210 
B( 40-C , 41-C ) :   1.4016 B( 40-C , 76-H ) :   0.9375 B( 41-C , 42-C ) :   1.3801 
B( 41-C , 77-H ) :   0.9491 B( 42-C , 43-C ) :   1.4065 B( 42-C , 78-H ) :   0.9549 
B( 43-C , 79-H ) :   0.9230 B( 44-C , 45-C ) :   1.3331 B( 44-C , 49-C ) :   1.4647 
B( 45-C , 46-C ) :   1.4044 B( 45-C , 80-H ) :   0.9410 B( 46-C , 47-C ) :   1.4154 
B( 46-C , 81-H ) :   0.9441 B( 47-C , 48-C ) :   1.4015 B( 47-C , 82-H ) :   0.9472 
B( 48-C , 49-C ) :   1.4275 B( 48-C , 83-H ) :   0.9433 B( 49-C , 84-H ) :   0.9173 


-------
TIMINGS
-------

Total SCF time: 0 days 0 hours 0 min 42 sec 

Total time                  ....      42.231 sec
Sum of individual times     ....      39.613 sec  ( 93.8%)

SCF preparation             ....       0.685 sec  (  1.6%)
Fock matrix formation       ....      36.128 sec  ( 85.5%)
  Startup                   ....       0.058 sec  (  0.2% of F)
  Split-RI-J                ....      15.125 sec  ( 41.9% of F)
  XC integration            ....      22.892 sec  ( 63.4% of F)
    XC Preparation          ....       0.000 sec  (  0.0% of XC)
    Basis function eval.    ....       2.085 sec  (  9.1% of XC)
    Density eval.           ....       7.511 sec  ( 32.8% of XC)
    XC-Functional eval.     ....       0.612 sec  (  2.7% of XC)
    XC-Potential eval.      ....       5.204 sec  ( 22.7% of XC)
Diagonalization             ....       0.000 sec  (  0.0%)
Density matrix formation    ....       0.303 sec  (  0.7%)
Total Energy calculation    ....       0.093 sec  (  0.2%)
Population analysis         ....       0.243 sec  (  0.6%)
Orbital Transformation      ....       0.208 sec  (  0.5%)
Orbital Orthonormalization  ....       0.000 sec  (  0.0%)
DIIS solution               ....       0.235 sec  (  0.6%)
SOSCF solution              ....       1.718 sec  (  4.1%)
Finished LeanSCF after  42.5 sec

Maximum memory used throughout the entire LEANSCF-calculation: 185.6 MB
[1769528780.502181] [node236:2531924:0]     ucp_context.c:1234 UCX  WARN  transport 'ib' is not available, please use one or more of: mm, posix, self, shm, sm, sysv, tcp
[1769528780.545603] [node236:2531925:0]     ucp_context.c:1234 UCX  WARN  transport 'ib' is not available, please use one or more of: mm, posix, self, shm, sm, sysv, tcp
[1769528780.548527] [node236:2531926:0]     ucp_context.c:1234 UCX  WARN  transport 'ib' is not available, please use one or more of: mm, posix, self, shm, sm, sysv, tcp
[1769528780.558498] [node236:2531930:0]     ucp_context.c:1234 UCX  WARN  transport 'ib' is not available, please use one or more of: mm, posix, self, shm, sm, sysv, tcp
[1769528780.570818] [node236:2531936:0]     ucp_context.c:1234 UCX  WARN  transport 'ib' is not available, please use one or more of: mm, posix, self, shm, sm, sysv, tcp
[1769528780.572555] [node236:2531932:0]     ucp_context.c:1234 UCX  WARN  transport 'ib' is not available, please use one or more of: mm, posix, self, shm, sm, sysv, tcp
[1769528780.578919] [node236:2531939:0]     ucp_context.c:1234 UCX  WARN  transport 'ib' is not available, please use one or more of: mm, posix, self, shm, sm, sysv, tcp
[1769528780.579708] [node236:2531942:0]     ucp_context.c:1234 UCX  WARN  transport 'ib' is not available, please use one or more of: mm, posix, self, shm, sm, sysv, tcp


           ************************************************************
           *        Program running with 8 parallel MPI-processes     *
           *              working on a common directory               *
           ************************************************************

------------------------------------------------------------------------------
                         ORCA PROPERTY INTEGRAL CALCULATIONS
------------------------------------------------------------------------------

GBWName                                   ... 12_3_confsstruct_1.gbw
Number of atoms                           ...     85
Number of basis functions                 ...   1170
Max core memory                           ...  12000 MB

Dipole integrals                          ... YES
Quadrupole integrals                      ...  NO
Linear momentum integrals                 ...  NO
Angular momentum integrals                ...  NO
Higher moments length integrals           ...  NO
Higher moments velocity integrals         ...  NO
Kinetic energy integrals                  ...  NO
GIAO right hand sides                     ...  NO
GIAO dipole derivative integrals          ...  NO
SOC integrals                             ...  NO
EPR diamagnetic integrals (GIAO)          ...  NO
EPR gauge integrals                       ...  NO
Field gradient integrals                  ...  NO (   0 nuclei)
Spin-dipole/Fermi contact integrals       ...  NO (   0 nuclei)
Contact density integrals                 ...  NO (   0 nuclei)
Nucleus-orbit integrals                   ...  NO (   0 nuclei)
Geometric perturbations                   ... YES (  85 nuclei)

Choice of electric origin   ... Center of mass
Position of electric origin ... ( -6.5550, -0.8047, -8.9660) 
Choice of magnetic origin   ... GIAO
Position of magnetic origin ... (  0.0000,  0.0000,  0.0000) 

Calculating integrals                     ... Electric Dipole (Length)     done (  0.1 sec)
Calculating integrals                     ... Geometrical perturbation right hand sides

-----------------------
GEOMETRIC PERTURBATIONS (85 nuclei)
-----------------------

MaxCore                            ...  12000 MB
Number of batches                  ...      1

BATCH   0: Atoms    0 -   84 (255 perturbations)
   => H(core) and overlap derivative integrals     ... done (     4.4 sec)
   => Making and storing internal U-coefficients   ... done (     0.9 sec)
   => RI-J derivative integrals                    ... 