
                                 *****************
                                 * O   R   C   A *
                                 *****************

                                            #,                                       
                                            ###                                      
                                            ####                                     
                                            #####                                    
                                            ######                                   
                                           ########,                                 
                                     ,,################,,,,,                         
                               ,,#################################,,                 
                          ,,##########################################,,             
                       ,#########################################, ''#####,          
                    ,#############################################,,   '####,        
                  ,##################################################,,,,####,       
                ,###########''''           ''''###############################       
              ,#####''   ,,,,##########,,,,          '''####'''          '####       
            ,##' ,,,,###########################,,,                        '##       
           ' ,,###''''                  '''############,,,                           
         ,,##''                                '''############,,,,        ,,,,,,###''
      ,#''                                            '''#######################'''  
     '                                                          ''''####''''         
             ,#######,   #######,   ,#######,      ##                                
            ,#'     '#,  ##    ##  ,#'     '#,    #''#        ,####,    ,#,          
            ##       ##  ##   ,#'  ##            #'  '#       #'       ,# #          
            ##       ##  #######   ##           ,######,      #####,      #          
            '#,     ,#'  ##    ##  '#,     ,#' ,#      #,     #,   #      #          
             '#######'   ##     ##  '#######'  #'      '#     '####' #    #          



                #########################################################
                #                        -***-                          #
                #          Department of theory and spectroscopy        #
                #                                                       #
                #                      Frank Neese                      #
                #                                                       #
                #     Directorship, Architecture, Infrastructure        #
                #                    SHARK, DRIVERS                     #
                #        Core code/Algorithms in most modules           #
                #                                                       #
                #        Max Planck Institute fuer Kohlenforschung      #
                #                Kaiser Wilhelm Platz 1                 #
                #                 D-45470 Muelheim/Ruhr                 #
                #                      Germany                          #
                #                                                       #
                #                  All rights reserved                  #
                #                        -***-                          #
                #########################################################


                         Program Version 6.1.0  -  RELEASE   -
                                (GIT: $679e74b$)
                          ($2025-06-10 18:02:51 +0200$)


 With contributions from (in alphabetic order):
[Max-Planck-Institut fuer Kohlenforschung]                               
  Daniel Aravena         : Magnetic Suceptibility                        
  Michael Atanasov       : Ab Initio Ligand Field Theory (pilot matlab implementation)
  Alexander A. Auer      : GIAO ZORA, VPT2 properties, NMR spectrum      
  Ute Becker             : All parallelization in ORCA, NUMFREQ, NUMCALC 
  Giovanni Bistoni       : ED, misc. LED, open-shell LED, HFLD           
  Dmytro Bykov           : pre 5.0 version of the SCF Hessian            
  Marcos Casanova-Páez   : Triplet and SCS-CIS(D). UHF-(DLPNO)-IP/EA/STEOM-CCSD. UHF-CVS-IP/STEOM-CCSD   
  Vijay G. Chilkuri      : MRCI spin determinant printing, contributions to CSF-ICE 
  Pauline Colinet        : FMM embedding                                 
  Dipayan Datta          : RHF DLPNO-CCSD density                        
  Achintya Kumar Dutta   : EOM-CC, STEOM-CC                              
  Nicolas Foglia         : Exact transition moments, OPA infrastructure, MCD improvements    
  Dmitry Ganyushin       : Spin-Orbit,Spin-Spin,Magnetic field MRCI      
  Miquel Garcia-Rates    : C-PCM and meta-GGA Hessian, CCSD/C-PCM, Gaussian charge scheme 
  Tiago L. C. Gouveia    : GS-ROHF, GS-ROCIS                             
  Yang Guo               : DLPNO-NEVPT2, F12-NEVPT2, CIM, IAO-localization        
  Andreas Hansen         : Spin unrestricted coupled pair/coupled cluster methods 
  Ingolf Harden          : AUTO-CI MPn and infrastructure                
  Benjamin Helmich-Paris : MC-RPA, TRAH-(SCF,CASSCF), AVAS, COSX integrals, SCF dyn. polar., MC-PDFT, srDFT 
  Lee Huntington         : MR-EOM, pCC                                   
  Robert Izsak           : Overlap fitted RIJCOSX, COSX-SCS-MP3, EOM     
  Riya Kayal             : Wick's Theorem for AUTO-CI, AUTO-CI UHF-CCSDT 
  Emily Kempfer          : AUTO-CI RHF CISDT and CCSDT, approximate NEVPT4
  Christian Kollmar      : KDIIS, OOCD, Brueckner-CCSD(T), CCSD density, CASPT2, CASPT2-K, improved NEVPT2 
  Axel Koslowski         : Symmetry handling                             
  Simone Kossmann        : meta-GGA functionals, TD-DFT gradient, OOMP2, (MP2 Hessian; deprecated post 5.0) 
  Lucas Lang             : DCDCAS, Hyperfine gauge corrections, ICE-SOC+SSC
  Marvin Lechner         : AUTO-CI (C++ implementation), FIC-MRCC        
  Spencer Leger          : CASSCF response                               
  Dagmar Lenk            : GEPOL surface, SMD, ORCA-2-JSON               
  Dimitrios Liakos       : Extrapolation schemes; Compound Job, Property file
  Dimitrios Manganas     : Further ROCIS development; embedding schemes. LFT, Crystal Embedding 
  Dimitrios Pantazis     : SARC Basis sets                               
  Anastasios Papadopoulos: AUTO-CI, single reference methods and gradients 
  Taras Petrenko         : pre 6.0 DFT Hessian and TD-DFT gradient,  ECA, NRVS 
  Petra Pikulova         : Analytic Raman intensities                    
  Peter Pinski           : DLPNO-MP2, DLPNO-MP2 Gradient                 
  Shashank Vittal Rao    : ES-AILFT, MagRelax                            
  Christoph Reimann      : Effective Core Potentials                     
  Marius Retegan         : Local ZFS, SOC                                
  Christoph Riplinger    : Optimizer, TS searches, QM/MM, DLPNO-CCSD(T), (RO)-DLPNO pert. Triples 
  Michael Roemelt        : Original ROCIS implementation, recursive CI coupling coefficients
  Masaaki Saitow         : Open-shell DLPNO-CCSD energy and density      
  Barbara Sandhoefer     : DKH picture change effects                    
  Yorick L. A. Schmerwitz: GMF and freeze-and-release deltaSCF, NEB S-IDPP initial path                    
  Kantharuban Sivalingam : CASSCF convergence/infrastructure, NEVPT2, NEVPT3, NEVPT4(SD), FIC-MRCI and CEPA variants
  Bernardo de Souza      : ESD, SOC TD-DFT                               
  Georgi L. Stoychev     : AutoAux, RI-MP2 NMR, DLPNO-MP2 response, X2C  
  Van Anh Tran           : RI-MP2 g-tensors                              
  Willem Van den Heuvel  : Paramagnetic NMR                              
  Zikuan Wang            : NOTCH, Electric field optimization            
  Frank Wennmohs         : Technical directorship and infrastructure     
  Hang Xu                : AUTO-CI-Response properties                   
                                                                         
[FACCTs GmbH]                                                            
  Markus Bursch, Nicolas Foglia, Miquel Garcia-Rates, Ingolf Harden, Hagen Neugebauer, Anastasios Papadopoulos, 
  Christoph Riplinger, Bernardo de Souza, Georgi L. Stoychev                                                    
                                                                 
  APM, various basis sets, CI-OPT, improved COSX, DLPNO-Multilevel,           
  DOCKER, DRACO, updates on ESD, Fragmentator, GOAT, IRC, LR-CPCM, L-BFGS, MBIS, meta-GGA TD-DFT gradient, ML-optimized integration grids, 
  MM, NACMEs, nearIR, NEB, NEB-TS, NL-DFT gradient (VV10), 2- and 3-layer-ONIOM, interface openCOSMO-RS, QMMM,   
  Crystal-QMMM, RESP, rigid body optimization, SF, symmetry and pop. for TD-DFT, various functionals, SOLVATOR                                   
                                                                         
[Other institutions]                                                     
  V. Asgeirsson          : NEB                                           
  Christoph Bannwarth    : sTDA-DFT, sTD-DFT, PBEh-3c, B97-3c, D3        
  Giovanni Bistoni       : ETS/NOCV, ADLD/ADEX, COVALED                  
  Martin Brehm           : Molecular dynamics                            
  Ronald Cardenas        : ETS/NOCV                                      
  Martina Colucci        : COVALED                                       
  Sebastian Ehlert       : rSCAN, r2SCAN, r2SCAN-3c, D4, dhf basis sets  
  Marvin Friede          : D4 for Fr, Ra, Ac-Lr                          
  Lars Goerigk           : TD-DFT with DH, B97 family of functionals     
  Stefan Grimme          : VdW corrections, initial TS optimization, DFT functionals, gCP, sTDA/sTD-DF 
  Waldemar Hujo          : DFT-NL                                        
  H. Jonsson             : NEB                                           
  Holger Kruse           : gCP                                           
  Marcel Mueller         : wB97X-3c, vDZP basis set                      
  Hagen Neugebauer       : wr2SCAN, Native XTB                           
  Gianluca Regni         : ADLD/ADEX                                     
  Tobias Risthaus        : pre 6.0 range-separated hybrid DFT and stability analysis
  Lukas Wittmann         : regularized MP2, r2SCAN double-hybrids, wr2SCAN        
                                                                         
We gratefully acknowledge several colleagues who have allowed us to      
interface, adapt or use parts of their codes:                            
  Ed Valeev, F. Pavosevic, A. Kumar             : LibInt (2-el integral package), F12 methods 
  Garnet Chan, S. Sharma, J. Yang, R. Olivares  : DMRG                   
  Ulf Ekstrom                                   : XCFun DFT Library      
  Mihaly Kallay                                 : mrcc  (arbitrary order and MRCC methods)
  Frank Weinhold                                : gennbo (NPA and NBO analysis)           
  Simon Mueller                                 : openCOSMO-RS                            
  Christopher J. Cramer and Donald G. Truhlar   : smd solvation model                     
  S Lehtola, MJT Oliveira, MAL Marques          : LibXC Library                           
  Liviu Ungur et al                             : ANISO software                          


 Your calculation uses the libint2 library for the computation of 2-el integrals
 For citations please refer to: http://libint.valeyev.net

 Your ORCA version has been built with support for libXC version: 7.0.0
 For citations please refer to: https://libxc.gitlab.io

 This ORCA versions uses:
   CBLAS   interface :  Fast vector & matrix operations
   LAPACKE interface :  Fast linear algebra routines
   SCALAPACK package :  Parallel linear algebra routines
   Shared memory     :  Shared parallel matrices
   BLAS/LAPACK       :  OpenBLAS 0.3.29  USE64BITINT DYNAMIC_ARCH NO_AFFINITY Cooperlake SINGLE_THREADED
        Core in use  :  Cooperlake
   Copyright (c) 2011-2014, The OpenBLAS Project


  ***********************************
  * Starting time: Tue Jan 27 15:58:17 2026
  * Host name:     node236.cluster
  * Process ID:    2481904
  * Working dir.:  /scratch/56627330
  ***********************************

NOTE: MaxCore=12000 MB was set to SCF,MP2,MDCI,CIPSI,MRCI,RASCI and CIS
      => If you want to overwrite this, your respective input block should be placed after the MaxCore statement
Your calculation utilizes the geometrical counterpoise correction gCP
Please cite in your paper:
H.Kruse, S. Grimme J.Chem.Phys., 136, (2012), 154101 
   

Your calculation utilizes the atom-pairwise dispersion correction
based on EEQ partial charges (D4)


================================================================================

----- Orbital basis set information -----
Your calculation utilizes the basis: def2-mTZVPP
   Stefan Grimme, Andreas Hansen, Sebastian Ehlert, and Jan-Michael Mewes 
   J. Chem. Phys. 154, 064103 (2021). DOI: 10.1063/5.0040021

----- AuxJ basis set information -----
Your calculation utilizes the basis: def2-mTZVPP/J
   Stefan Grimme, Andreas Hansen, Sebastian Ehlert, and Jan-Michael Mewes 
   J. Chem. Phys. 154, 000000 (2021). DOI: 10.1063/5.0040021

================================================================================
                                        WARNINGS
                       Please study these warnings very carefully!
================================================================================



WARNING: SCAN, rSCAN, or r2SCAN functional requested.
  ===> : libXC variant has now been activated.



WARNING: Geometry Optimization
  ===> : Switching off AutoStart
         For restart on a previous wavefunction, please use MOREAD

================================================================================
                                       INPUT FILE
================================================================================
NAME = 12_3_confsstruct_2.inp
|  1> !r2scan-3c opt freq 
|  2> %pal 
|  3> nprocs 8 
|  4> end 
|  5> %maxcore 12000
|  6>  
|  7> * XYZ 0 1 
|  8> O     -3.00752500      1.36189100     -8.01521800
|  9> C     -2.08432100      1.93046100     -7.47529100
| 10> O     -2.14558100      2.47131200     -6.30448000
| 11> Ni     -0.54141000      2.45966900     -5.45425600
| 12> N      0.24241400      2.52528500     -7.13163200
| 13> C     -0.69669600      2.10793600     -8.17358800
| 14> C     -0.92421000      3.12628200     -9.25569900
| 15> C     -1.27072300      4.43002000     -8.91641600
| 16> C     -1.49925800      5.37277500     -9.89924700
| 17> C     -1.39540700      5.02343100    -11.23543100
| 18> C     -1.07023000      3.72361200    -11.58093400
| 19> C     -0.83563500      2.78007900    -10.59684600
| 20> C      1.13018200      3.52781100     -7.43000600
| 21> C      1.28647300      4.63037000     -6.57489300
| 22> C      2.23251900      5.60279800     -6.82875600
| 23> C      3.04672000      5.50961400     -7.94293300
| 24> C      2.88997300      4.43761600     -8.80995100
| 25> C      1.94591700      3.46494300     -8.57102300
| 26> P     -1.45082500      2.36363100     -3.46525800
| 27> C     -1.84464300      0.68956700     -2.88275700
| 28> C     -1.19745500      0.04989600     -1.83306300
| 29> C     -1.51097500     -1.26514400     -1.53693500
| 30> C     -2.45996600     -1.94280100     -2.28386500
| 31> C     -3.10078400     -1.30824200     -3.33761400
| 32> C     -2.78995700      0.00214000     -3.64311000
| 33> C     -2.93839500      3.32193200     -3.07037900
| 34> C     -3.85973000      2.94193300     -2.10053000
| 35> C     -4.95863400      3.74487400     -1.85268600
| 36> C     -5.14251700      4.91727400     -2.56863800
| 37> C     -4.23033000      5.29130300     -3.54272700
| 38> C     -3.12994700      4.49416200     -3.79497100
| 39> C     -0.21532100      2.94536600     -2.25147800
| 40> C     -0.53449200      3.34823100     -0.96293900
| 41> C      0.47267900      3.72373800     -0.08982800
| 42> C      1.79683900      3.68311900     -0.49744100
| 43> C      2.12391400      3.28893100     -1.78452900
| 44> C      1.11968500      2.93405300     -2.67563000
| 45> P      1.37214500      2.36653800     -4.39564400
| 46> C      1.44813500      0.56841800     -4.06789800
| 47> C      0.57363800     -0.25261700     -4.77272400
| 48> C      0.52457700     -1.60906700     -4.50987800
| 49> C      1.34959600     -2.15011100     -3.53777700
| 50> C      2.22998500     -1.33799200     -2.83970800
| 51> C      2.28214500      0.01890200     -3.10068300
| 52> C      3.08063100      2.77614800     -4.83285700
| 53> C      3.62463300      4.02225200     -4.53301900
| 54> C      4.89860600      4.34070700     -4.96205900
| 55> C      5.62629900      3.43320900     -5.71525800
| 56> C      5.07662600      2.20462300     -6.04159200
| 57> C      3.80692300      1.87519400     -5.60562200
| 58> H     -0.39253700      1.14422400     -8.60917600
| 59> H     -1.36521400      4.70088200     -7.87382100
| 60> H     -1.76448600      6.38342000     -9.62345200
| 61> H     -1.57344200      5.76108000    -12.00460500
| 62> H     -0.99678700      3.44299400    -12.62205000
| 63> H     -0.58467100      1.76508200    -10.87155800
| 64> H      0.59664800      4.73389300     -5.73105500
| 65> H      2.32351700      6.44985000     -6.16266400
| 66> H      3.78507800      6.27083800     -8.14531100
| 67> H      3.51648000      4.36222700     -9.68747900
| 68> H      1.83720600      2.63307600     -9.24980200
| 69> H     -0.44900600      0.57241800     -1.25351900
| 70> H     -1.00768900     -1.76316800     -0.72100600
| 71> H     -2.69658700     -2.96993700     -2.04839900
| 72> H     -3.83425500     -1.83969400     -3.92547300
| 73> H     -3.26132400      0.50558600     -4.47834000
| 74> H     -3.72191600      2.01841900     -1.55412600
| 75> H     -5.67815100      3.45235600     -1.10167700
| 76> H     -6.00624700      5.53546100     -2.37305900
| 77> H     -4.38460800      6.19771300     -4.10900500
| 78> H     -2.41816400      4.75197500     -4.57089500
| 79> H     -1.56855300      3.36970500     -0.64846400
| 80> H      0.22555100      4.04306700      0.91166800
| 81> H      2.58070400      3.96345100      0.19064700
| 82> H      3.15912700      3.26153500     -2.09340900
| 83> H     -0.07046400      0.18678200     -5.54030000
| 84> H     -0.15950700     -2.24112900     -5.05590500
| 85> H      1.30830500     -3.20760800     -3.32334500
| 86> H      2.87478300     -1.76481600     -2.08532500
| 87> H      2.96461200      0.65533200     -2.55436600
| 88> H      3.04214500      4.74158800     -3.97420200
| 89> H      5.32171700      5.30471600     -4.72094100
| 90> H      6.61762800      3.68957700     -6.05771800
| 91> H      5.63725800      1.50398400     -6.64240200
| 92> H      3.36715900      0.92206600     -5.86551300
| 93> 
| 94> **                         ****END OF INPUT****
================================================================================

                       *****************************
                       * Geometry Optimization Run *
                       *****************************

Geometry optimization settings:
Update method            Update   .... BFGS
Choice of coordinates    CoordSys .... (2022) Redundant Internals
Initial Hessian          InHess   .... Almloef's Model
Max. no of cycles        MaxIter  .... 255

Convergence Tolerances:
Energy Change            TolE     ....  5.0000e-06 Eh
Max. Gradient            TolMAXG  ....  3.0000e-04 Eh/bohr
RMS Gradient             TolRMSG  ....  1.0000e-04 Eh/bohr
Max. Displacement        TolMAXD  ....  4.0000e-03 bohr
RMS Displacement         TolRMSD  ....  2.0000e-03 bohr
Strict Convergence                .... False

------------------------------------------------------------------------------
                        ORCA OPTIMIZATION COORDINATE SETUP
------------------------------------------------------------------------------

The optimization will be done in redundant internal coordinates (2022)
Making redundant internal coordinates   ...  (2022 redundants) done
Evaluating the initial hessian          ...  (Almloef) done
Evaluating the coordinates              ...  done
Calculating the B-matrix                .... done
Calculating the G-matrix                .... done
The number of degrees of freedom        ....  580

    -----------------------------------------------------------------
                    Redundant Internal Coordinates


    -----------------------------------------------------------------
         Definition                    Initial Value    Approx d2E/dq
    -----------------------------------------------------------------
      1. B(C   1,O   0)                  1.2112         1.079141   
      2. B(O   2,C   1)                  1.2912         0.804605   
      3. B(Ni  3,O   2)                  1.8156         1.185748   
      4. B(Ni  3,C   1)                  2.5972         0.074976   
      5. B(N   4,Ni  3)                  1.8526         1.034874   
      6. B(C   5,C   1)                  1.5635         0.330283   
      7. B(C   5,Ni  3)                  2.7464         0.043336   
      8. B(C   5,N   4)                  1.4635         0.427208   
      9. B(C   6,C   5)                  1.5032         0.412153   
     10. B(C   7,C   6)                  1.3910         0.622476   
     11. B(C   8,C   7)                  1.3809         0.645962   
     12. B(C   9,C   8)                  1.3850         0.636388   
     13. B(C  10,C   9)                  1.3837         0.639412   
     14. B(C  11,C   6)                  1.3879         0.629543   
     15. B(C  11,C  10)                  1.3834         0.640196   
     16. B(C  12,N   4)                  1.3719         0.597985   
     17. B(C  12,Ni  3)                  2.7998         0.035617   
     18. B(C  13,C  12)                  1.4040         0.593424   
     19. B(C  14,C  13)                  1.3802         0.647602   
     20. B(C  15,C  14)                  1.3831         0.640810   
     21. B(C  16,C  15)                  1.3876         0.630300   
     22. B(C  17,C  12)                  1.4040         0.593413   
     23. B(C  17,C  16)                  1.3764         0.656854   
     24. B(P  18,Ni  3)                  2.1891         1.128149   
     25. B(C  19,P  18)                  1.8157         0.439543   
     26. B(C  20,C  19)                  1.3892         0.626625   
     27. B(C  21,C  20)                  1.3839         0.638839   
     28. B(C  22,C  21)                  1.3848         0.636816   
     29. B(C  23,C  22)                  1.3870         0.631778   
     30. B(C  24,C  23)                  1.3810         0.645901   
     31. B(C  24,C  19)                  1.3944         0.614811   
     32. B(C  25,P  18)                  1.8130         0.443905   
     33. B(C  26,C  25)                  1.3906         0.623342   
     34. B(C  27,C  26)                  1.3834         0.640185   
     35. B(C  28,C  27)                  1.3860         0.634108   
     36. B(C  29,C  28)                  1.3859         0.634183   
     37. B(C  30,C  29)                  1.3820         0.643449   
     38. B(C  30,C  25)                  1.3913         0.621710   
     39. B(C  31,P  18)                  1.8271         0.421630   
     40. B(C  32,C  31)                  1.3873         0.631107   
     41. B(C  33,C  32)                  1.3848         0.636804   
     42. B(C  34,C  33)                  1.3861         0.633876   
     43. B(C  35,C  34)                  1.3853         0.635761   
     44. B(C  36,C  35)                  1.3887         0.627798   
     45. B(C  36,C  31)                  1.4008         0.600467   
     46. B(P  37,C  36)                  1.8287         0.419049   
     47. B(P  37,Ni  3)                  2.1888         1.129425   
     48. B(C  38,P  37)                  1.8293         0.418137   
     49. B(C  39,C  38)                  1.3913         0.621896   
     50. B(C  40,C  39)                  1.3826         0.642126   
     51. B(C  41,C  40)                  1.3851         0.636260   
     52. B(C  42,C  41)                  1.3863         0.633267   
     53. B(C  43,C  42)                  1.3827         0.641667   
     54. B(C  43,C  38)                  1.3903         0.624016   
     55. B(C  44,P  37)                  1.8105         0.448099   
     56. B(C  45,C  44)                  1.3923         0.619444   
     57. B(C  46,C  45)                  1.3815         0.644654   
     58. B(C  47,C  46)                  1.3858         0.634548   
     59. B(C  48,C  47)                  1.3849         0.636520   
     60. B(C  49,C  48)                  1.3823         0.642735   
     61. B(C  49,C  44)                  1.3915         0.621271   
     62. B(H  50,C   5)                  1.1005         0.346538   
     63. B(H  51,C   7)                  1.0813         0.371738   
     64. B(H  52,C   8)                  1.0807         0.372679   
     65. B(H  53,C   9)                  1.0805         0.372908   
     66. B(H  54,C  10)                  1.0808         0.372520   
     67. B(H  55,C  11)                  1.0810         0.372137   
     68. B(H  56,C  13)                  1.0948         0.353776   
     69. B(H  57,C  14)                  1.0814         0.371639   
     70. B(H  58,C  15)                  1.0796         0.374089   
     71. B(H  59,C  16)                  1.0809         0.372402   
     72. B(H  60,C  17)                  1.0791         0.374745   
     73. B(H  61,C  20)                  1.0812         0.371879   
     74. B(H  62,C  21)                  1.0803         0.373153   
     75. B(H  63,C  22)                  1.0800         0.373548   
     76. B(H  64,C  23)                  1.0798         0.373830   
     77. B(H  65,C  24)                  1.0832         0.369252   
     78. B(H  66,C  26)                  1.0819         0.371026   
     79. B(H  67,C  27)                  1.0804         0.373012   
     80. B(H  68,C  28)                  1.0800         0.373552   
     81. B(H  69,C  29)                  1.0798         0.373796   
     82. B(H  70,C  30)                  1.0840         0.368060   
     83. B(H  71,C  32)                  1.0810         0.372156   
     84. B(H  72,C  33)                  1.0798         0.373805   
     85. B(H  73,C  34)                  1.0800         0.373514   
     86. B(H  74,C  35)                  1.0807         0.372672   
     87. B(H  75,C  39)                  1.0941         0.354683   
     88. B(H  76,C  40)                  1.0796         0.374071   
     89. B(H  77,H  62)                  3.7713         0.010000   
     90. B(H  77,C  41)                  1.0798         0.373838   
     91. B(H  78,C  42)                  1.0803         0.373170   
     92. B(H  79,C  43)                  1.0813         0.371759   
     93. B(H  80,C  45)                  1.0812         0.371919   
     94. B(H  81,C  46)                  1.0800         0.373528   
     95. B(H  82,H  58)                  4.3640         0.010000   
     96. B(H  82,C  47)                  1.0797         0.373997   
     97. B(H  83,C  48)                  1.0799         0.373717   
     98. B(H  84,C  49)                  1.0814         0.371682   
     99. A(O   2,C   1,Ni  3)           40.2872         0.348914   
    100. A(O   0,C   1,C   5)          122.0491         0.425423   
    101. A(O   0,C   1,Ni  3)          153.5516         0.366771   
    102. A(O   0,C   1,O   2)          124.3805         0.497151   
    103. A(Ni  3,C   1,C   5)           78.2977         0.303237   
    104. A(O   2,C   1,C   5)          113.5501         0.403796   
    105. A(C   1,O   2,Ni  3)          112.3359         0.571709   
    106. A(C   5,Ni  3,P  18)          150.5187         0.395289   
    107. A(N   4,Ni  3,C   5)           29.7703         0.370377   
    108. A(N   4,Ni  3,C  12)           25.1719         0.358157   
    109. A(C   5,Ni  3,P  37)          121.5242         0.395368   
    110. A(C  12,Ni  3,P  37)           80.5360         0.382063   
    111. A(C   1,Ni  3,O   2)           27.3768         0.417512   
    112. A(N   4,Ni  3,P  37)           93.9864         0.713605   
    113. A(P  18,Ni  3,P  37)           85.5198         0.768907   
    114. A(C   1,Ni  3,P  37)          152.5045         0.435839   
    115. A(O   2,Ni  3,C  12)          101.2220         0.366577   
    116. A(O   2,Ni  3,N   4)           87.1112         0.680600   
    117. A(C   5,Ni  3,C  12)           51.9671         0.221021   
    118. A(O   2,Ni  3,P  18)           93.3659         0.732980   
    119. A(C   1,Ni  3,C   5)           33.8812         0.245247   
    120. A(C   1,Ni  3,P  18)          116.8268         0.435751   
    121. A(C   1,Ni  3,N   4)           63.5131         0.407547   
    122. A(C   1,Ni  3,C  12)           83.2976         0.238461   
    123. A(C  12,Ni  3,P  18)          154.9480         0.381988   
    124. A(O   2,Ni  3,C   5)           59.1485         0.379179   
    125. A(Ni  3,N   4,C  12)          119.7729         0.526657   
    126. A(C   5,N   4,C  12)          117.9552         0.398429   
    127. A(Ni  3,N   4,C   5)          111.2861         0.494581   
    128. A(C   6,C   5,H  50)          110.4966         0.327530   
    129. A(Ni  3,C   5,C   6)          129.3872         0.287965   
    130. A(Ni  3,C   5,H  50)          119.2393         0.254460   
    131. A(N   4,C   5,C   6)          114.6103         0.375791   
    132. A(C   1,C   5,H  50)          108.8249         0.315869   
    133. A(C   1,C   5,C   6)          105.3117         0.361810   
    134. A(Ni  3,C   5,N   4)           38.9437         0.287937   
    135. A(C   1,C   5,Ni  3)           67.8211         0.278238   
    136. A(C   1,C   5,N   4)          106.4928         0.361771   
    137. A(N   4,C   5,H  50)          110.7442         0.327496   
    138. A(C   7,C   6,C  11)          119.0368         0.435573   
    139. A(C   5,C   6,C  11)          121.1275         0.404694   
    140. A(C   5,C   6,C   7)          119.8050         0.403888   
    141. A(C   6,C   7,C   8)          120.4969         0.437599   
    142. A(C   8,C   7,H  51)          120.0494         0.357295   
    143. A(C   6,C   7,H  51)          119.4530         0.355056   
    144. A(C   7,C   8,C   9)          120.1340         0.439347   
    145. A(C   9,C   8,H  52)          120.0340         0.356543   
    146. A(C   7,C   8,H  52)          119.8312         0.357449   
    147. A(C   8,C   9,H  53)          120.1478         0.356580   
    148. A(C   8,C   9,C  10)          119.7000         0.438540   
    149. A(C  10,C   9,H  53)          120.1512         0.356867   
    150. A(C   9,C  10,H  54)          120.0270         0.356804   
    151. A(C   9,C  10,C  11)          120.1941         0.439012   
    152. A(C  11,C  10,H  54)          119.7788         0.356879   
    153. A(C   6,C  11,H  55)          119.6407         0.355801   
    154. A(C   6,C  11,C  10)          120.4266         0.437782   
    155. A(C  10,C  11,H  55)          119.9323         0.356816   
    156. A(Ni  3,C  12,N   4)           35.0552         0.294348   
    157. A(C  13,C  12,C  17)          117.7389         0.427289   
    158. A(N   4,C  12,C  17)          121.3309         0.425087   
    159. A(N   4,C  12,C  13)          120.8913         0.425088   
    160. A(Ni  3,C  12,C  13)           86.3457         0.295693   
    161. A(Ni  3,C  12,C  17)          154.5936         0.295692   
    162. A(C  12,C  13,H  56)          118.2643         0.349259   
    163. A(C  12,C  13,C  14)          121.1674         0.434046   
    164. A(C  14,C  13,H  56)          120.4650         0.354457   
    165. A(C  15,C  14,H  57)          119.9614         0.356793   
    166. A(C  13,C  14,H  57)          119.7513         0.357433   
    167. A(C  13,C  14,C  15)          120.2773         0.440098   
    168. A(C  14,C  15,H  58)          120.4041         0.357192   
    169. A(C  14,C  15,C  16)          119.2674         0.437953   
    170. A(C  16,C  15,H  58)          120.3207         0.356190   
    171. A(C  15,C  16,C  17)          120.9953         0.439912   
    172. A(C  17,C  16,H  59)          119.2892         0.358421   
    173. A(C  15,C  16,H  59)          119.7155         0.355917   
    174. A(C  12,C  17,C  16)          120.5263         0.435154   
    175. A(C  16,C  17,H  60)          120.3090         0.358804   
    176. A(C  12,C  17,H  60)          119.1538         0.352672   
    177. A(C  19,P  18,C  25)          103.8565         0.437399   
    178. A(Ni  3,P  18,C  25)          121.0337         0.576184   
    179. A(C  19,P  18,C  31)          103.1265         0.433363   
    180. A(Ni  3,P  18,C  19)          114.9625         0.575096   
    181. A(Ni  3,P  18,C  31)          107.9815         0.570540   
    182. A(C  25,P  18,C  31)          103.9955         0.434134   
    183. A(C  20,C  19,C  24)          120.0568         0.434240   
    184. A(P  18,C  19,C  24)          115.2543         0.434683   
    185. A(P  18,C  19,C  20)          124.4643         0.436175   
    186. A(C  19,C  20,C  21)          119.5823         0.437249   
    187. A(C  21,C  20,H  61)          120.0877         0.356646   
    188. A(C  19,C  20,H  61)          120.3291         0.355479   
    189. A(C  20,C  21,C  22)          120.3192         0.438522   
    190. A(C  22,C  21,H  62)          120.0688         0.356661   
    191. A(C  20,C  21,H  62)          119.6116         0.356853   
    192. A(C  21,C  22,C  23)          120.1670         0.437644   
    193. A(C  23,C  22,H  63)          119.9686         0.356244   
    194. A(C  21,C  22,H  63)          119.8633         0.356725   
    195. A(C  22,C  23,C  24)          119.8816         0.438764   
    196. A(C  24,C  23,H  64)          119.9650         0.357630   
    197. A(C  22,C  23,H  64)          120.1504         0.356290   
    198. A(C  19,C  24,C  23)          119.9843         0.436615   
    199. A(C  23,C  24,H  65)          120.9086         0.356882   
    200. A(C  19,C  24,H  65)          119.1017         0.353908   
    201. A(P  18,C  25,C  26)          123.4395         0.436539   
    202. A(C  26,C  25,C  30)          120.1464         0.434702   
    203. A(P  18,C  25,C  30)          116.4138         0.436333   
    204. A(C  25,C  26,C  27)          119.5138         0.437000   
    205. A(C  27,C  26,H  66)          120.4092         0.356634   
    206. A(C  25,C  26,H  66)          120.0727         0.355024   
    207. A(C  26,C  27,C  28)          120.2533         0.438352   
    208. A(C  26,C  27,H  67)          119.7626         0.356958   
    209. A(C  28,C  27,H  67)          119.9831         0.356380   
    210. A(C  29,C  28,H  68)          119.9450         0.356475   
    211. A(C  27,C  28,H  68)          119.7848         0.356467   
    212. A(C  27,C  28,C  29)          120.2669         0.437608   
    213. A(C  30,C  29,H  69)          120.1463         0.357394   
    214. A(C  28,C  29,H  69)          120.0708         0.356514   
    215. A(C  28,C  29,C  30)          119.7802         0.438764   
    216. A(C  29,C  30,H  70)          121.0821         0.356456   
    217. A(C  25,C  30,H  70)          118.8641         0.354384   
    218. A(C  25,C  30,C  29)          120.0352         0.437195   
    219. A(C  32,C  31,C  36)          120.1888         0.432954   
    220. A(P  18,C  31,C  36)          116.1506         0.429618   
    221. A(P  18,C  31,C  32)          123.6378         0.433477   
    222. A(C  33,C  32,H  71)          120.4572         0.356498   
    223. A(C  31,C  32,H  71)          119.7385         0.355954   
    224. A(C  31,C  32,C  33)          119.8040         0.437559   
    225. A(C  34,C  33,H  72)          120.0030         0.356486   
    226. A(C  32,C  33,H  72)          119.9001         0.356765   
    227. A(C  32,C  33,C  34)          120.0959         0.437904   
    228. A(C  35,C  34,H  73)          119.6326         0.356619   
    229. A(C  33,C  34,H  73)          119.8937         0.356439   
    230. A(C  33,C  34,C  35)          120.4734         0.437775   
    231. A(C  36,C  35,H  74)          120.1885         0.355720   
    232. A(C  34,C  35,H  74)          119.9314         0.356482   
    233. A(C  34,C  35,C  36)          119.8797         0.437015   
    234. A(C  35,C  36,P  37)          125.6624         0.432589   
    235. A(C  31,C  36,P  37)          114.7628         0.429145   
    236. A(C  31,C  36,C  35)          119.5258         0.432545   
    237. A(C  38,P  37,C  44)          103.0882         0.434218   
    238. A(C  36,P  37,C  44)          106.6902         0.434389   
    239. A(Ni  3,P  37,C  44)          134.3115         0.577347   
    240. A(C  36,P  37,C  38)           98.1788         0.429021   
    241. A(Ni  3,P  37,C  38)           99.4849         0.569757   
    242. A(Ni  3,P  37,C  36)          108.7231         0.569995   
    243. A(C  39,C  38,C  43)          119.7513         0.434810   
    244. A(P  37,C  38,C  43)          122.5511         0.431951   
    245. A(P  37,C  38,C  39)          117.5933         0.431686   
    246. A(C  38,C  39,C  40)          120.3303         0.437056   
    247. A(C  40,C  39,H  75)          120.4310         0.354101   
    248. A(C  38,C  39,H  75)          119.2380         0.352187   
    249. A(C  39,C  40,C  41)          119.7062         0.438860   
    250. A(C  41,C  40,H  76)          120.2448         0.356757   
    251. A(C  39,C  40,H  76)          120.0476         0.357314   
    252. A(C  40,C  41,C  42)          120.1886         0.437761   
    253. A(C  42,C  41,H  77)          119.8670         0.356433   
    254. A(C  40,C  41,H  77)          119.9443         0.356719   
    255. A(C  41,C  42,C  43)          120.2497         0.438430   
    256. A(C  43,C  42,H  78)          119.8013         0.357124   
    257. A(C  41,C  42,H  78)          119.9482         0.356325   
    258. A(C  38,C  43,C  42)          119.7700         0.437268   
    259. A(C  42,C  43,H  79)          120.3986         0.356894   
    260. A(C  38,C  43,H  79)          119.8310         0.355208   
    261. A(C  45,C  44,C  49)          119.6772         0.434156   
    262. A(P  37,C  44,C  49)          118.6955         0.437017   
    263. A(P  37,C  44,C  45)          121.2769         0.436785   
    264. A(C  44,C  45,C  46)          119.9821         0.437054   
    265. A(C  46,C  45,H  80)          120.2624         0.357202   
    266. A(C  44,C  45,H  80)          119.7516         0.354791   
    267. A(C  45,C  46,C  47)          120.1382         0.438957   
    268. A(C  47,C  46,H  81)          120.0090         0.356505   
    269. A(C  45,C  46,H  81)          119.8472         0.357464   
    270. A(C  46,C  47,C  48)          120.0388         0.437953   
    271. A(C  48,C  47,H  82)          120.0206         0.356769   
    272. A(C  46,C  47,H  82)          119.9363         0.356581   
    273. A(C  47,C  48,C  49)          120.1101         0.438967   
    274. A(C  49,C  48,H  83)          119.8491         0.357314   
    275. A(C  47,C  48,H  83)          120.0398         0.356724   
    276. A(C  44,C  49,C  48)          120.0178         0.437051   
    277. A(C  48,C  49,H  84)          120.5173         0.356982   
    278. A(C  44,C  49,H  84)          119.4637         0.354930   
    279. D(Ni  3,O   2,C   1,C   5)    -31.0918         0.055272   
    280. D(Ni  3,O   2,C   1,O   0)    150.5246         0.055272   
    281. D(N   4,Ni  3,C   1,O   0)    147.1297         0.010000   
    282. D(C   5,Ni  3,C   1,O   2)   -151.0891         0.010000   
    283. D(O   2,Ni  3,C   1,O   0)    -65.7500         0.010000   
    284. D(C   5,Ni  3,O   2,C   1)     18.2963         0.010000   
    285. D(N   4,Ni  3,C   1,O   2)   -147.1202         0.010000   
    286. D(C   5,Ni  3,C   1,O   0)    143.1609         0.010000   
    287. D(N   4,Ni  3,O   2,C   1)     29.1117         0.010000   
    288. D(O   2,Ni  3,C   1,C   5)    151.0891         0.010000   
    289. D(C  12,Ni  3,C   1,O   2)   -130.7728         0.010000   
    290. D(C  12,Ni  3,O   2,C   1)     50.0665         0.010000   
    291. D(C  12,Ni  3,C   1,O   0)    163.4772         0.010000   
    292. D(P  18,Ni  3,O   2,C   1)   -150.4049         0.010000   
    293. D(N   4,Ni  3,C   1,C   5)      3.9689         0.010000   
    294. D(C  12,N   4,Ni  3,C   5)    143.3690         0.010000   
    295. D(C   5,N   4,Ni  3,C   1)     -4.4570         0.010000   
    296. D(C  12,N   4,Ni  3,O   2)    124.4371         0.010000   
    297. D(C   5,N   4,Ni  3,C  12)   -143.3690         0.010000   
    298. D(C  12,N   4,Ni  3,P  37)    -57.6016         0.010000   
    299. D(C   5,N   4,Ni  3,P  37)    159.0294         0.010000   
    300. D(C  12,N   4,Ni  3,C   1)    138.9120         0.010000   
    301. D(C   5,N   4,Ni  3,O   2)    -18.9319         0.010000   
    302. D(C   6,C   5,C   1,O   2)   -106.8503         0.010000   
    303. D(H  50,C   5,N   4,Ni  3)   -111.2431         0.016672   
    304. D(N   4,C   5,C   1,Ni  3)     -4.6913         0.010000   
    305. D(N   4,C   5,C   1,O   0)   -166.3269         0.010000   
    306. D(Ni  3,C   5,C   1,O   2)     19.9384         0.010000   
    307. D(C   1,C   5,Ni  3,O   2)    -15.0078         0.010000   
    308. D(C   6,C   5,C   1,O   0)     71.5758         0.010000   
    309. D(N   4,C   5,C   1,O   2)     15.2471         0.010000   
    310. D(C   1,C   5,N   4,C  12)   -137.1835         0.016672   
    311. D(C   6,C   5,N   4,Ni  3)    122.9311         0.016672   
    312. D(C   6,C   5,N   4,C  12)    -21.1730         0.016672   
    313. D(N   4,C   5,Ni  3,P  37)    -24.7610         0.010000   
    314. D(Ni  3,C   5,C   1,O   0)   -161.6355         0.010000   
    315. D(C   1,C   5,N   4,Ni  3)      6.9205         0.016672   
    316. D(N   4,C   5,Ni  3,C  12)     18.7958         0.010000   
    317. D(N   4,C   5,Ni  3,C   1)    172.8327         0.010000   
    318. D(N   4,C   5,Ni  3,P  18)   -178.7579         0.010000   
    319. D(C   1,C   5,Ni  3,P  37)    162.4062         0.010000   
    320. D(Ni  3,C   5,N   4,C  12)   -144.1041         0.016672   
    321. D(N   4,C   5,Ni  3,O   2)    157.8249         0.010000   
    322. D(C   1,C   5,Ni  3,P  18)      8.4094         0.010000   
    323. D(C   1,C   5,Ni  3,N   4)   -172.8327         0.010000   
    324. D(H  50,C   5,N   4,C  12)    104.6528         0.016672   
    325. D(C   1,C   5,Ni  3,C  12)   -154.0369         0.010000   
    326. D(C  11,C   6,C   5,Ni  3)    173.2987         0.013452   
    327. D(C  11,C   6,C   5,C   1)   -113.0583         0.013452   
    328. D(C   7,C   6,C   5,H  50)   -177.7342         0.013452   
    329. D(C   7,C   6,C   5,N   4)    -51.7797         0.013452   
    330. D(C   7,C   6,C   5,Ni  3)     -8.7327         0.013452   
    331. D(C   7,C   6,C   5,C   1)     64.9102         0.013452   
    332. D(H  51,C   7,C   6,C  11)    178.5197         0.026825   
    333. D(H  51,C   7,C   6,C   5)      0.5086         0.026825   
    334. D(C   8,C   7,C   6,C  11)     -1.1824         0.026825   
    335. D(C   8,C   7,C   6,C   5)   -179.1935         0.026825   
    336. D(H  52,C   8,C   7,H  51)      0.5134         0.029028   
    337. D(C   9,C   8,C   7,H  51)   -179.1756         0.029028   
    338. D(H  52,C   8,C   7,C   6)   -179.7863         0.029028   
    339. D(C   9,C   8,C   7,C   6)      0.5248         0.029028   
    340. D(C  10,C   9,C   8,C   7)      0.4196         0.028117   
    341. D(C  10,C   9,C   8,H  52)   -179.2687         0.028117   
    342. D(H  53,C   9,C   8,H  52)      0.3579         0.028117   
    343. D(H  53,C   9,C   8,C   7)   -179.9538         0.028117   
    344. D(C  11,C  10,C   9,H  53)    179.6805         0.028403   
    345. D(H  54,C  10,C   9,H  53)     -0.1944         0.028403   
    346. D(H  54,C  10,C   9,C   8)    179.4322         0.028403   
    347. D(C  11,C  10,C   9,C   8)     -0.6929         0.028403   
    348. D(H  55,C  11,C  10,H  54)     -0.3007         0.028477   
    349. D(H  55,C  11,C  10,C   9)    179.8241         0.028477   
    350. D(C   6,C  11,C  10,H  54)    179.8984         0.028477   
    351. D(C   6,C  11,C  10,C   9)      0.0232         0.028477   
    352. D(H  55,C  11,C   6,C   5)     -0.9096         0.027477   
    353. D(H  55,C  11,C   6,C   7)   -178.8935         0.027477   
    354. D(C  10,C  11,C   6,C   5)    178.8919         0.027477   
    355. D(C  10,C  11,C   6,C   7)      0.9080         0.027477   
    356. D(C  17,C  12,N   4,Ni  3)    166.7921         0.031307   
    357. D(C  13,C  12,N   4,C   5)    130.1067         0.031307   
    358. D(C  13,C  12,N   4,Ni  3)    -10.8877         0.031307   
    359. D(C  13,C  12,Ni  3,C   5)    148.5589         0.010000   
    360. D(C  13,C  12,Ni  3,N   4)    170.6526         0.010000   
    361. D(C  13,C  12,Ni  3,O   2)    113.5384         0.010000   
    362. D(C  13,C  12,Ni  3,C   1)    134.3335         0.010000   
    363. D(N   4,C  12,Ni  3,P  37)    121.3591         0.010000   
    364. D(Ni  3,C  12,N   4,C   5)    140.9944         0.031307   
    365. D(N   4,C  12,Ni  3,P  18)    178.4261         0.010000   
    366. D(N   4,C  12,Ni  3,C   5)    -22.0937         0.010000   
    367. D(N   4,C  12,Ni  3,O   2)    -57.1142         0.010000   
    368. D(C  17,C  12,N   4,C   5)    -52.2135         0.031307   
    369. D(N   4,C  12,Ni  3,C   1)    -36.3191         0.010000   
    370. D(H  56,C  13,C  12,N   4)     -7.4971         0.026338   
    371. D(H  56,C  13,C  12,Ni  3)    -13.7381         0.026338   
    372. D(C  14,C  13,C  12,C  17)     -1.5784         0.026338   
    373. D(C  14,C  13,C  12,N   4)    176.1824         0.026338   
    374. D(C  14,C  13,C  12,Ni  3)    169.9414         0.026338   
    375. D(H  57,C  14,C  13,H  56)      2.8706         0.029186   
    376. D(H  57,C  14,C  13,C  12)    179.1105         0.029186   
    377. D(C  15,C  14,C  13,H  56)   -175.9848         0.029186   
    378. D(C  15,C  14,C  13,C  12)      0.2551         0.029186   
    379. D(H  58,C  15,C  14,H  57)      0.9356         0.028535   
    380. D(H  58,C  15,C  14,C  13)    179.7886         0.028535   
    381. D(C  16,C  15,C  14,H  57)   -178.0474         0.028535   
    382. D(C  16,C  15,C  14,C  13)      0.8056         0.028535   
    383. D(H  59,C  16,C  15,H  58)      0.4810         0.027547   
    384. D(H  59,C  16,C  15,C  14)    179.4649         0.027547   
    385. D(C  17,C  16,C  15,H  58)   -179.4838         0.027547   
    386. D(C  17,C  16,C  15,C  14)     -0.4999         0.027547   
    387. D(H  60,C  17,C  16,H  59)      0.3758         0.030086   
    388. D(H  60,C  17,C  16,C  15)   -179.6592         0.030086   
    389. D(C  12,C  17,C  16,H  59)    179.1640         0.030086   
    390. D(C  12,C  17,C  16,C  15)     -0.8710         0.030086   
    391. D(H  60,C  17,C  12,N   4)      2.9279         0.026337   
    392. D(H  60,C  17,C  12,Ni  3)     20.7391         0.026337   
    393. D(C  16,C  17,C  12,C  13)      1.8763         0.026337   
    394. D(C  16,C  17,C  12,N   4)   -175.8742         0.026337   
    395. D(C  16,C  17,C  12,Ni  3)   -158.0630         0.026337   
    396. D(C  25,P  18,Ni  3,C  12)     86.0284         0.010000   
    397. D(C  25,P  18,Ni  3,C   5)    -59.8455         0.010000   
    398. D(C  25,P  18,Ni  3,O   2)    -39.8603         0.010000   
    399. D(C  25,P  18,Ni  3,C   1)    -54.6037         0.010000   
    400. D(C  19,P  18,Ni  3,P  37)    -91.7878         0.010000   
    401. D(C  19,P  18,Ni  3,C  12)   -147.9297         0.010000   
    402. D(C  19,P  18,Ni  3,C   5)     66.1964         0.010000   
    403. D(C  19,P  18,Ni  3,C   1)     71.4382         0.010000   
    404. D(C  25,P  18,Ni  3,P  37)    142.1703         0.010000   
    405. D(C  19,P  18,Ni  3,O   2)     86.1816         0.010000   
    406. D(C  31,P  18,N   4,C  12)    -34.7550         0.010000   
    407. D(C  31,P  18,N   4,C   5)   -178.4605         0.010000   
    408. D(C  25,P  18,N   4,C  12)     84.8281         0.010000   
    409. D(C  25,P  18,N   4,C   5)    -58.8774         0.010000   
    410. D(C  19,P  18,N   4,C  12)   -149.0403         0.010000   
    411. D(C  19,P  18,N   4,C   5)     67.2543         0.010000   
    412. D(C  24,C  19,P  18,C  31)    179.7275         0.010000   
    413. D(C  24,C  19,P  18,C  25)     71.4693         0.010000   
    414. D(C  24,C  19,P  18,Ni  3)    -63.0008         0.010000   
    415. D(C  20,C  19,P  18,C  31)     -5.7365         0.010000   
    416. D(C  20,C  19,P  18,C  25)   -113.9947         0.010000   
    417. D(C  20,C  19,P  18,Ni  3)    111.5352         0.010000   
    418. D(H  61,C  20,C  19,C  24)    178.7383         0.027207   
    419. D(H  61,C  20,C  19,P  18)      4.4486         0.027207   
    420. D(C  21,C  20,C  19,C  24)     -0.9016         0.027207   
    421. D(C  21,C  20,C  19,P  18)   -175.1912         0.027207   
    422. D(H  62,C  21,C  20,H  61)      0.3341         0.028348   
    423. D(H  62,C  21,C  20,C  19)    179.9749         0.028348   
    424. D(C  22,C  21,C  20,H  61)   -179.4066         0.028348   
    425. D(C  22,C  21,C  20,C  19)      0.2341         0.028348   
    426. D(H  63,C  22,C  21,H  62)      0.0588         0.028157   
    427. D(H  63,C  22,C  21,C  20)    179.7984         0.028157   
    428. D(C  23,C  22,C  21,H  62)   -179.5605         0.028157   
    429. D(C  23,C  22,C  21,C  20)      0.1791         0.028157   
    430. D(H  64,C  23,C  22,H  63)     -0.1716         0.027685   
    431. D(H  64,C  23,C  22,C  21)    179.4473         0.027685   
    432. D(C  24,C  23,C  22,H  63)   -179.5400         0.027685   
    433. D(C  24,C  23,C  22,C  21)      0.0789         0.027685   
    434. D(H  65,C  24,C  23,H  64)     -0.9716         0.029022   
    435. D(H  65,C  24,C  23,C  22)    178.3980         0.029022   
    436. D(C  19,C  24,C  23,H  64)    179.8838         0.029022   
    437. D(C  19,C  24,C  23,C  22)     -0.7466         0.029022   
    438. D(H  65,C  24,C  19,C  20)   -177.9982         0.026130   
    439. D(H  65,C  24,C  19,P  18)     -3.2024         0.026130   
    440. D(C  23,C  24,C  19,C  20)      1.1617         0.026130   
    441. D(C  23,C  24,C  19,P  18)    175.9576         0.026130   
    442. D(C  30,C  25,P  18,C  31)     94.1727         0.010000   
    443. D(C  30,C  25,P  18,C  19)   -158.2168         0.010000   
    444. D(C  30,C  25,P  18,Ni  3)    -27.2443         0.010000   
    445. D(C  26,C  25,P  18,C  31)    -85.6393         0.010000   
    446. D(C  26,C  25,P  18,C  19)     21.9712         0.010000   
    447. D(C  26,C  25,P  18,Ni  3)    152.9437         0.010000   
    448. D(H  66,C  26,C  25,C  30)    178.5563         0.026905   
    449. D(H  66,C  26,C  25,P  18)     -1.6384         0.026905   
    450. D(C  27,C  26,C  25,C  30)     -0.6875         0.026905   
    451. D(C  27,C  26,C  25,P  18)    179.1178         0.026905   
    452. D(H  67,C  27,C  26,H  66)      0.6184         0.028476   
    453. D(H  67,C  27,C  26,C  25)    179.8596         0.028476   
    454. D(C  28,C  27,C  26,H  66)   -179.0316         0.028476   
    455. D(C  28,C  27,C  26,C  25)      0.2096         0.028476   
    456. D(H  68,C  28,C  27,H  67)     -0.0134         0.027903   
    457. D(H  68,C  28,C  27,C  26)    179.6358         0.027903   
    458. D(C  29,C  28,C  27,H  67)   -179.3489         0.027903   
    459. D(C  29,C  28,C  27,C  26)      0.3003         0.027903   
    460. D(H  69,C  29,C  28,H  68)     -0.2626         0.027910   
    461. D(H  69,C  29,C  28,C  27)    179.0719         0.027910   
    462. D(C  30,C  29,C  28,H  68)   -179.6656         0.027910   
    463. D(C  30,C  29,C  28,C  27)     -0.3312         0.027910   
    464. D(H  70,C  30,C  29,H  69)     -1.1362         0.028787   
    465. D(H  70,C  30,C  29,C  28)    178.2664         0.028787   
    466. D(C  25,C  30,C  29,H  69)   -179.5502         0.028787   
    467. D(C  25,C  30,C  29,C  28)     -0.1476         0.028787   
    468. D(H  70,C  30,C  25,C  26)   -177.7902         0.026755   
    469. D(H  70,C  30,C  25,P  18)      2.3912         0.026755   
    470. D(C  29,C  30,C  25,C  26)      0.6588         0.026755   
    471. D(C  29,C  30,C  25,P  18)   -179.1598         0.026755   
    472. D(C  36,C  31,P  18,C  25)   -148.8698         0.010000   
    473. D(C  36,C  31,P  18,C  19)    102.9768         0.010000   
    474. D(C  36,C  31,P  18,Ni  3)    -19.1157         0.010000   
    475. D(C  32,C  31,P  18,C  25)     32.8671         0.010000   
    476. D(C  32,C  31,P  18,C  19)    -75.2864         0.010000   
    477. D(C  32,C  31,P  18,Ni  3)    162.6212         0.010000   
    478. D(H  71,C  32,C  31,C  36)    178.9949         0.027622   
    479. D(H  71,C  32,C  31,P  18)     -2.8088         0.027622   
    480. D(C  33,C  32,C  31,C  36)     -0.8157         0.027622   
    481. D(C  33,C  32,C  31,P  18)    177.3806         0.027622   
    482. D(H  72,C  33,C  32,H  71)     -0.1640         0.028156   
    483. D(H  72,C  33,C  32,C  31)    179.6452         0.028156   
    484. D(C  34,C  33,C  32,H  71)    179.4821         0.028156   
    485. D(C  34,C  33,C  32,C  31)     -0.7086         0.028156   
    486. D(H  73,C  34,C  33,H  72)      0.5036         0.027881   
    487. D(H  73,C  34,C  33,C  32)   -179.1422         0.027881   
    488. D(C  35,C  34,C  33,H  72)   -179.2963         0.027881   
    489. D(C  35,C  34,C  33,C  32)      1.0580         0.027881   
    490. D(H  74,C  35,C  34,H  73)      0.1305         0.028058   
    491. D(H  74,C  35,C  34,C  33)    179.9309         0.028058   
    492. D(C  36,C  35,C  34,H  73)   -179.6672         0.028058   
    493. D(C  36,C  35,C  34,C  33)      0.1332         0.028058   
    494. D(P  37,C  36,C  35,C  34)   -178.9584         0.027315   
    495. D(C  31,C  36,C  35,H  74)    178.5575         0.027315   
    496. D(C  31,C  36,C  35,C  34)     -1.6453         0.027315   
    497. D(P  37,C  36,C  31,C  32)    179.5889         0.024858   
    498. D(P  37,C  36,C  31,P  18)      1.2618         0.024858   
    499. D(C  35,C  36,C  31,C  32)      1.9928         0.024858   
    500. D(P  37,C  36,C  35,H  74)      1.2444         0.027315   
    501. D(C  35,C  36,C  31,P  18)   -176.3344         0.024858   
    502. D(C  44,P  37,C  36,C  35)    -14.7193         0.010000   
    503. D(C  44,P  37,C  36,C  31)    167.8553         0.010000   
    504. D(C  38,P  37,C  36,C  35)     91.6562         0.010000   
    505. D(Ni  3,P  37,C  36,C  35)   -165.3705         0.010000   
    506. D(Ni  3,P  37,C  36,C  31)     17.2041         0.010000   
    507. D(C  38,P  37,Ni  3,P  18)     79.7026         0.010000   
    508. D(C  38,P  37,Ni  3,C  12)   -121.1819         0.010000   
    509. D(C  38,P  37,Ni  3,C   5)    -87.7982         0.010000   
    510. D(C  38,P  37,Ni  3,N   4)    -99.8307         0.010000   
    511. D(C  38,P  37,Ni  3,C   1)    -66.3917         0.010000   
    512. D(C  36,P  37,Ni  3,P  18)    -22.3564         0.010000   
    513. D(C  36,P  37,Ni  3,C  12)    136.7590         0.010000   
    514. D(C  36,P  37,Ni  3,C   5)    170.1427         0.010000   
    515. D(C  36,P  37,Ni  3,N   4)    158.1103         0.010000   
    516. D(C  38,P  37,C  36,C  31)    -85.7691         0.010000   
    517. D(C  36,P  37,Ni  3,C   1)   -168.4507         0.010000   
    518. D(C  44,P  37,O   2,C   1)     47.9151         0.010000   
    519. D(C  38,P  37,O   2,C   1)    -70.3747         0.010000   
    520. D(C  36,P  37,O   2,C   1)   -172.0296         0.010000   
    521. D(C  43,C  38,P  37,C  44)     58.3762         0.010000   
    522. D(C  43,C  38,P  37,C  36)    -50.9715         0.010000   
    523. D(C  43,C  38,P  37,Ni  3)   -161.6302         0.010000   
    524. D(C  39,C  38,P  37,C  44)   -125.3493         0.010000   
    525. D(C  39,C  38,P  37,C  36)    125.3030         0.010000   
    526. D(C  39,C  38,P  37,Ni  3)     14.6443         0.010000   
    527. D(H  75,C  39,C  38,C  43)   -179.2805         0.026772   
    528. D(H  75,C  39,C  38,P  37)      4.3364         0.026772   
    529. D(C  40,C  39,C  38,C  43)      0.4088         0.026772   
    530. D(C  40,C  39,C  38,P  37)   -175.9743         0.026772   
    531. D(H  76,C  40,C  39,C  38)    179.6748         0.028661   
    532. D(C  41,C  40,C  39,H  75)    179.8026         0.028661   
    533. D(C  41,C  40,C  39,C  38)      0.1169         0.028661   
    534. D(H  76,C  40,C  39,H  75)     -0.6395         0.028661   
    535. D(H  77,C  41,C  40,H  76)     -0.0902         0.028105   
    536. D(H  77,C  41,C  40,C  39)    179.4669         0.028105   
    537. D(C  42,C  41,C  40,H  76)    179.8362         0.028105   
    538. D(C  42,C  41,C  40,C  39)     -0.6068         0.028105   
    539. D(H  78,C  42,C  41,H  77)      0.1943         0.027824   
    540. D(H  78,C  42,C  41,C  40)   -179.7321         0.027824   
    541. D(C  43,C  42,C  41,H  77)   -179.5025         0.027824   
    542. D(C  43,C  42,C  41,C  40)      0.5711         0.027824   
    543. D(H  79,C  43,C  42,H  78)      0.0132         0.028617   
    544. D(H  79,C  43,C  42,C  41)    179.7105         0.028617   
    545. D(C  38,C  43,C  42,H  78)   -179.7389         0.028617   
    546. D(C  38,C  43,C  42,C  41)     -0.0416         0.028617   
    547. D(H  79,C  43,C  38,C  39)    179.8011         0.026966   
    548. D(H  79,C  43,C  38,P  37)     -4.0020         0.026966   
    549. D(C  42,C  43,C  38,C  39)     -0.4453         0.026966   
    550. D(C  42,C  43,C  38,P  37)    175.7515         0.026966   
    551. D(C  49,C  44,P  37,C  38)     38.6435         0.010000   
    552. D(C  49,C  44,P  37,C  36)    141.4810         0.010000   
    553. D(C  49,C  44,P  37,Ni  3)    -78.9636         0.010000   
    554. D(C  45,C  44,P  37,C  38)   -148.1761         0.010000   
    555. D(C  45,C  44,P  37,C  36)    -45.3386         0.010000   
    556. D(C  45,C  44,P  37,Ni  3)     94.2169         0.010000   
    557. D(H  80,C  45,C  44,C  49)    176.9904         0.026549   
    558. D(H  80,C  45,C  44,P  37)      3.8759         0.026549   
    559. D(C  46,C  45,C  44,C  49)     -2.2993         0.026549   
    560. D(C  46,C  45,C  44,P  37)   -175.4138         0.026549   
    561. D(H  81,C  46,C  45,H  80)      1.2417         0.028902   
    562. D(H  81,C  46,C  45,C  44)   -179.4722         0.028902   
    563. D(C  47,C  46,C  45,H  80)   -177.9019         0.028902   
    564. D(C  47,C  46,C  45,C  44)      1.3841         0.028902   
    565. D(H  82,C  47,C  46,H  81)      0.2109         0.027944   
    566. D(H  82,C  47,C  46,C  45)    179.3531         0.027944   
    567. D(C  48,C  47,C  46,H  81)   -179.0427         0.027944   
    568. D(C  48,C  47,C  46,C  45)      0.0996         0.027944   
    569. D(H  83,C  48,C  47,H  82)     -0.2721         0.028129   
    570. D(H  83,C  48,C  47,C  46)    178.9808         0.028129   
    571. D(C  49,C  48,C  47,H  82)   -179.9144         0.028129   
    572. D(C  49,C  48,C  47,C  46)     -0.6615         0.028129   
    573. D(H  84,C  49,C  48,H  83)     -0.3058         0.028719   
    574. D(H  84,C  49,C  48,C  47)    179.3373         0.028719   
    575. D(C  44,C  49,C  48,H  83)   -179.9078         0.028719   
    576. D(C  44,C  49,C  48,C  47)     -0.2648         0.028719   
    577. D(H  84,C  49,C  44,C  45)   -177.8661         0.026715   
    578. D(H  84,C  49,C  44,P  37)     -4.5740         0.026715   
    579. D(C  48,C  49,C  44,C  45)      1.7402         0.026715   
    580. D(C  48,C  49,C  44,P  37)    175.0323         0.026715   
    -----------------------------------------------------------------

Number of atoms                         .... 85
Number of degrees of freedom            .... 580


         *************************************************************
         *                GEOMETRY OPTIMIZATION CYCLE   1            *
         *************************************************************
---------------------------------
CARTESIAN COORDINATES (ANGSTROEM)
---------------------------------
  O     -3.007525    1.361891   -8.015218
  C     -2.084321    1.930461   -7.475291
  O     -2.145581    2.471312   -6.304480
  Ni    -0.541410    2.459669   -5.454256
  N      0.242414    2.525285   -7.131632
  C     -0.696696    2.107936   -8.173588
  C     -0.924210    3.126282   -9.255699
  C     -1.270723    4.430020   -8.916416
  C     -1.499258    5.372775   -9.899247
  C     -1.395407    5.023431  -11.235431
  C     -1.070230    3.723612  -11.580934
  C     -0.835635    2.780079  -10.596846
  C      1.130182    3.527811   -7.430006
  C      1.286473    4.630370   -6.574893
  C      2.232519    5.602798   -6.828756
  C      3.046720    5.509614   -7.942933
  C      2.889973    4.437616   -8.809951
  C      1.945917    3.464943   -8.571023
  P     -1.450825    2.363631   -3.465258
  C     -1.844643    0.689567   -2.882757
  C     -1.197455    0.049896   -1.833063
  C     -1.510975   -1.265144   -1.536935
  C     -2.459966   -1.942801   -2.283865
  C     -3.100784   -1.308242   -3.337614
  C     -2.789957    0.002140   -3.643110
  C     -2.938395    3.321932   -3.070379
  C     -3.859730    2.941933   -2.100530
  C     -4.958634    3.744874   -1.852686
  C     -5.142517    4.917274   -2.568638
  C     -4.230330    5.291303   -3.542727
  C     -3.129947    4.494162   -3.794971
  C     -0.215321    2.945366   -2.251478
  C     -0.534492    3.348231   -0.962939
  C      0.472679    3.723738   -0.089828
  C      1.796839    3.683119   -0.497441
  C      2.123914    3.288931   -1.784529
  C      1.119685    2.934053   -2.675630
  P      1.372145    2.366538   -4.395644
  C      1.448135    0.568418   -4.067898
  C      0.573638   -0.252617   -4.772724
  C      0.524577   -1.609067   -4.509878
  C      1.349596   -2.150111   -3.537777
  C      2.229985   -1.337992   -2.839708
  C      2.282145    0.018902   -3.100683
  C      3.080631    2.776148   -4.832857
  C      3.624633    4.022252   -4.533019
  C      4.898606    4.340707   -4.962059
  C      5.626299    3.433209   -5.715258
  C      5.076626    2.204623   -6.041592
  C      3.806923    1.875194   -5.605622
  H     -0.392537    1.144224   -8.609176
  H     -1.365214    4.700882   -7.873821
  H     -1.764486    6.383420   -9.623452
  H     -1.573442    5.761080  -12.004605
  H     -0.996787    3.442994  -12.622050
  H     -0.584671    1.765082  -10.871558
  H      0.596648    4.733893   -5.731055
  H      2.323517    6.449850   -6.162664
  H      3.785078    6.270838   -8.145311
  H      3.516480    4.362227   -9.687479
  H      1.837206    2.633076   -9.249802
  H     -0.449006    0.572418   -1.253519
  H     -1.007689   -1.763168   -0.721006
  H     -2.696587   -2.969937   -2.048399
  H     -3.834255   -1.839694   -3.925473
  H     -3.261324    0.505586   -4.478340
  H     -3.721916    2.018419   -1.554126
  H     -5.678151    3.452356   -1.101677
  H     -6.006247    5.535461   -2.373059
  H     -4.384608    6.197713   -4.109005
  H     -2.418164    4.751975   -4.570895
  H     -1.568553    3.369705   -0.648464
  H      0.225551    4.043067    0.911668
  H      2.580704    3.963451    0.190647
  H      3.159127    3.261535   -2.093409
  H     -0.070464    0.186782   -5.540300
  H     -0.159507   -2.241129   -5.055905
  H      1.308305   -3.207608   -3.323345
  H      2.874783   -1.764816   -2.085325
  H      2.964612    0.655332   -2.554366
  H      3.042145    4.741588   -3.974202
  H      5.321717    5.304716   -4.720941
  H      6.617628    3.689577   -6.057718
  H      5.637258    1.503984   -6.642402
  H      3.367159    0.922066   -5.865513

----------------------------
CARTESIAN COORDINATES (A.U.)
----------------------------
  NO LB      ZA    FRAG     MASS         X           Y           Z
   0 O     8.0000    0    15.999   -5.683399    2.573601  -15.146567
   1 C     6.0000    0    12.011   -3.938796    3.648043  -14.126253
   2 O     8.0000    0    15.999   -4.054560    4.670103  -11.913741
   3 Ni   28.0000    0    58.700   -1.023117    4.648101  -10.307050
   4 N     7.0000    0    14.007    0.458096    4.772097  -13.476831
   5 C     6.0000    0    12.011   -1.316565    3.983422  -15.445843
   6 C     6.0000    0    12.011   -1.746504    5.907817  -17.490736
   7 C     6.0000    0    12.011   -2.401318    8.371525  -16.849584
   8 C     6.0000    0    12.011   -2.833187   10.153073  -18.706866
   9 C     6.0000    0    12.011   -2.636937    9.492909  -21.231888
  10 C     6.0000    0    12.011   -2.022442    7.036607  -21.884794
  11 C     6.0000    0    12.011   -1.579121    5.253588  -20.025137
  12 C     6.0000    0    12.011    2.135734    6.666597  -14.040677
  13 C     6.0000    0    12.011    2.431082    8.750131  -12.424747
  14 C     6.0000    0    12.011    4.218849   10.587754  -12.904479
  15 C     6.0000    0    12.011    5.757466   10.411662  -15.009968
  16 C     6.0000    0    12.011    5.461258    8.385879  -16.648395
  17 C     6.0000    0    12.011    3.677250    6.547793  -16.196886
  18 P    15.0000    0    30.974   -2.741662    4.466615   -6.548389
  19 C     6.0000    0    12.011   -3.485870    1.303093   -5.447621
  20 C     6.0000    0    12.011   -2.262862    0.094290   -3.463987
  21 C     6.0000    0    12.011   -2.855329   -2.390776   -2.904386
  22 C     6.0000    0    12.011   -4.648662   -3.671362   -4.315879
  23 C     6.0000    0    12.011   -5.859633   -2.472219   -6.307176
  24 C     6.0000    0    12.011   -5.272255    0.004044   -6.884480
  25 C     6.0000    0    12.011   -5.552762    6.277542   -5.802175
  26 C     6.0000    0    12.011   -7.293833    5.559448   -3.969426
  27 C     6.0000    0    12.011   -9.370460    7.076786   -3.501069
  28 C     6.0000    0    12.011   -9.717949    9.292301   -4.854022
  29 C     6.0000    0    12.011   -7.994165    9.999114   -6.694784
  30 C     6.0000    0    12.011   -5.914743    8.492735   -7.171456
  31 C     6.0000    0    12.011   -0.406898    5.565935   -4.254677
  32 C     6.0000    0    12.011   -1.010044    6.327240   -1.819691
  33 C     6.0000    0    12.011    0.893234    7.036845   -0.169750
  34 C     6.0000    0    12.011    3.395534    6.960086   -0.940027
  35 C     6.0000    0    12.011    4.013616    6.215179   -3.372271
  36 C     6.0000    0    12.011    2.115898    5.544557   -5.056208
  37 P    15.0000    0    30.974    2.592978    4.472109   -8.306563
  38 C     6.0000    0    12.011    2.736579    1.074154   -7.687213
  39 C     6.0000    0    12.011    1.084019   -0.477377   -9.019141
  40 C     6.0000    0    12.011    0.991307   -3.040696   -8.522434
  41 C     6.0000    0    12.011    2.550367   -4.063121   -6.685430
  42 C     6.0000    0    12.011    4.214061   -2.528438   -5.366270
  43 C     6.0000    0    12.011    4.312629    0.035720   -5.859442
  44 C     6.0000    0    12.011    5.821549    5.246159   -9.132776
  45 C     6.0000    0    12.011    6.849564    7.600955   -8.566164
  46 C     6.0000    0    12.011    9.257024    8.202747   -9.376933
  47 C     6.0000    0    12.011   10.632164    6.487825  -10.800272
  48 C     6.0000    0    12.011    9.593433    4.166134  -11.416954
  49 C     6.0000    0    12.011    7.194042    3.543603  -10.593090
  50 H     1.0000    0     1.008   -0.741787    2.162270  -16.268985
  51 H     1.0000    0     1.008   -2.579881    8.883380  -14.879365
  52 H     1.0000    0     1.008   -3.334395   12.062916  -18.185689
  53 H     1.0000    0     1.008   -2.973374   10.886863  -22.685416
  54 H     1.0000    0     1.008   -1.883654    6.506316  -23.852218
  55 H     1.0000    0     1.008   -1.104868    3.335522  -20.544267
  56 H     1.0000    0     1.008    1.127501    8.945761  -10.830124
  57 H     1.0000    0     1.008    4.390811   12.188450  -11.645747
  58 H     1.0000    0     1.008    7.152761   11.850166  -15.392407
  59 H     1.0000    0     1.008    6.645184    8.243414  -18.306682
  60 H     1.0000    0     1.008    3.471816    4.975793  -17.479593
  61 H     1.0000    0     1.008   -0.848498    1.081713   -2.368808
  62 H     1.0000    0     1.008   -1.904256   -3.331905   -1.362504
  63 H     1.0000    0     1.008   -5.095811   -5.612368   -3.870913
  64 H     1.0000    0     1.008   -7.245692   -3.476518   -7.418069
  65 H     1.0000    0     1.008   -6.163009    0.955419   -8.462836
  66 H     1.0000    0     1.008   -7.033402    3.814259   -2.936873
  67 H     1.0000    0     1.008  -10.730150    6.524007   -2.081868
  68 H     1.0000    0     1.008  -11.350162   10.460505   -4.484432
  69 H     1.0000    0     1.008   -8.285708   11.711980   -7.764894
  70 H     1.0000    0     1.008   -4.569668    8.979931   -8.637740
  71 H     1.0000    0     1.008   -2.964136    6.367820   -1.225419
  72 H     1.0000    0     1.008    0.426230    7.640289    1.722803
  73 H     1.0000    0     1.008    4.876824    7.489837    0.360271
  74 H     1.0000    0     1.008    5.969885    6.163408   -3.955970
  75 H     1.0000    0     1.008   -0.133158    0.352967  -10.469650
  76 H     1.0000    0     1.008   -0.301425   -4.235120   -9.554276
  77 H     1.0000    0     1.008    2.472338   -6.061501   -6.280212
  78 H     1.0000    0     1.008    5.432553   -3.335019   -3.940693
  79 H     1.0000    0     1.008    5.602305    1.238398   -4.827052
  80 H     1.0000    0     1.008    5.748821    8.960303   -7.510153
  81 H     1.0000    0     1.008   10.056588   10.024460   -8.921286
  82 H     1.0000    0     1.008   12.505505    6.972290  -11.447428
  83 H     1.0000    0     1.008   10.652874    2.842118  -12.552321
  84 H     1.0000    0     1.008    6.363008    1.742452  -11.084213

--------------------------------
INTERNAL COORDINATES (ANGSTROEM)
--------------------------------
 O      0   0   0     0.000000000000     0.00000000     0.00000000
 C      1   0   0     1.211238471914     0.00000000     0.00000000
 O      2   1   0     1.291151032808   124.38052670     0.00000000
 Ni     3   2   1     1.815593844136   112.33592177   150.52459381
 N      4   3   2     1.852640215424    87.11117104    29.11170086
 C      5   4   3     1.463482178175   111.28605245   341.06814686
 C      6   5   4     1.503248286955   114.61027879   122.93108311
 C      7   6   5     1.391012935203   119.80504364   308.22034399
 C      8   7   6     1.380931573544   120.49691152   180.80646197
 C      9   8   7     1.384996008078   120.13400552     0.52477659
 C     10   9   8     1.383705834742   119.69996929     0.41960525
 C     11  10   9     1.383372158119   120.19414298   359.30710449
 C      5   4   3     1.371939301272   119.77291840   124.43714737
 C     13   5   4     1.404023314597   120.89132416   349.11228412
 C     14  13   5     1.380241164460   121.16738982   176.18240109
 C     15  14  13     1.383111316412   120.27734636     0.25513824
 C     16  15  14     1.387612894988   119.26737787     0.80555852
 C     17  16  15     1.376379702426   120.99525837   359.50008150
 P      4   3   2     2.189148689256    93.36585418   209.59507006
 C     19   4   3     1.815734096232   114.96248251    86.18157581
 C     20  19   4     1.389204372733   124.46434349   111.53520420
 C     21  20  19     1.383949704427   119.58228737   184.80877717
 C     22  21  20     1.384813111084   120.31917566     0.23413300
 C     23  22  21     1.386975049742   120.16697013     0.17907810
 C     24  23  22     1.380956992766   119.88162070     0.07889986
 C     19   4   3     1.813045707130   121.03366923   320.13967438
 C     26  19   4     1.390634569190   123.43952164   152.94369297
 C     27  26  19     1.383376629495   119.51378629   179.11781929
 C     28  27  26     1.385973298442   120.25331817     0.20961095
 C     29  28  27     1.385940906291   120.26688625     0.30028595
 C     30  29  28     1.381992603492   119.78018854   359.66883927
 C     19   4   3     1.827059832803   107.98154137   200.66647623
 C     32  19   4     1.387264607055   123.63777942   162.62115457
 C     33  32  19     1.384818308881   119.80395478   177.38060231
 C     34  33  32     1.386072857584   120.09593240   359.29135199
 C     35  34  33     1.385264507130   120.47340406     1.05795447
 C     36  35  34     1.388695528734   119.87972078     0.13318684
 P     37  36  35     1.828731113921   125.66235375   181.04156908
 C     38  37  36     1.829324316521    98.17878930    91.65624958
 C     39  38  37     1.391266748151   117.59334293   125.30296450
 C     40  39  38     1.382552568236   120.33027297   184.02574474
 C     41  40  39     1.385050654127   119.70617591     0.11691201
 C     42  41  40     1.386334155333   120.18856828   359.39323262
 C     43  42  41     1.382747244966   120.24974189     0.57105348
 C     38  37  36     1.810486114740   106.69019529   345.28074003
 C     45  38  37     1.392341977053   121.27689747   314.66141556
 C     46  45  38     1.381483301873   119.98214413   184.58619168
 C     47  46  45     1.385784418968   120.13824062     1.38414881
 C     48  47  46     1.384939654238   120.03884674     0.09955605
 C     49  48  47     1.382294836549   120.11009730   359.33847275
 H      6   5   4     1.100450099718   110.74418515   248.75690817
 H      8   7   6     1.081341345806   119.45302766     0.50860554
 H      9   8   7     1.080653547643   119.83124672   180.21373639
 H     10   9   8     1.080486534253   120.14781083   180.04623493
 H     11  10   9     1.080769569163   120.02697699   179.43220998
 H     12  11  10     1.081049731626   119.93234729   179.82410117
 H     14  13   5     1.094823324741   118.26425040   352.50285204
 H     15  14  13     1.081414018391   119.75134779   179.11054233
 H     16  15  14     1.079625568993   120.40408369   179.78857648
 H     17  16  15     1.080856101965   119.71550564   179.46490918
 H     18  17  16     1.079148607955   120.30895616   180.34082286
 H     21  20  19     1.081238361334   120.32905720     4.44861819
 H     22  21  20     1.080307750325   119.61156342   179.97487017
 H     23  22  21     1.080019489312   119.86331421   179.79838581
 H     24  23  22     1.079814400731   120.15038726   179.44732208
 H     25  24  23     1.083168443274   120.90860545   178.39796228
 H     27  26  19     1.081863271402   120.07270319   358.36159259
 H     28  27  26     1.080410112732   119.76264245   179.85956039
 H     29  28  27     1.080016585572   119.78478553   179.63580462
 H     30  29  28     1.079838674371   120.07084958   179.07189596
 H     31  30  29     1.084048262687   121.08213966   178.26636243
 H     33  32  19     1.081035526716   119.73854119   357.19120536
 H     34  33  32     1.079832161329   119.90013307   179.64519656
 H     35  34  33     1.080044195481   119.89365018   180.85780745
 H     36  35  34     1.080658757696   119.93143771   179.93086174
 H     40  39  38     1.094126036333   119.23797459     4.33637322
 H     41  40  39     1.079638261470   120.04757060   179.67483045
 H     42  41  40     1.079808285907   119.94434510   179.46685152
 H     43  42  41     1.080294820162   119.94822958   180.26789405
 H     44  43  42     1.081326322383   120.39858993   179.71049295
 H     46  45  38     1.081209041087   119.75161141     3.87590903
 H     47  46  45     1.080034332939   119.84720683   180.52776330
 H     48  47  46     1.079692821716   119.93632533   179.35308079
 H     49  48  47     1.079896246796   120.03982761   178.98080424
 H     50  49  48     1.081382768478   120.51734294   179.33726203

---------------------------
INTERNAL COORDINATES (A.U.)
---------------------------
 O      0   0   0     0.000000000000     0.00000000     0.00000000
 C      1   0   0     2.288908994787     0.00000000     0.00000000
 O      2   1   0     2.439921849537   124.38052670     0.00000000
 Ni     3   2   1     3.430975135851   112.33592177   150.52459381
 N      4   3   2     3.500982631841    87.11117104    29.11170086
 C      5   4   3     2.765580518626   111.28605245   341.06814686
 C      6   5   4     2.840727573631   114.61027879   122.93108311
 C      7   6   5     2.628633496276   119.80504364   308.22034399
 C      8   7   6     2.609582483683   120.49691152   180.80646197
 C      9   8   7     2.617263151842   120.13400552     0.52477659
 C     10   9   8     2.614825077571   119.69996929     0.41960525
 C     11  10   9     2.614194520136   120.19414298   359.30710449
 C      5   4   3     2.592589551768   119.77291840   124.43714737
 C     13   5   4     2.653219550228   120.89132416   349.11228412
 C     14  13   5     2.608277799593   121.16738982   176.18240109
 C     15  14  13     2.613701600745   120.27734636     0.25513824
 C     16  15  14     2.622208351425   119.26737787     0.80555852
 C     17  16  15     2.600980693872   120.99525837   359.50008150
 P      4   3   2     4.136891489127    93.36585418   209.59507006
 C     19   4   3     3.431240173902   114.96248251    86.18157581
 C     20  19   4     2.625215808512   124.46434349   111.53520420
 C     21  20  19     2.615285924489   119.58228737   184.80877717
 C     22  21  20     2.616917526612   120.31917566     0.23413300
 C     23  22  21     2.621002998594   120.16697013     0.17907810
 C     24  23  22     2.609630519051   119.88162070     0.07889986
 C     19   4   3     3.426159854757   121.03366923   320.13967438
 C     26  19   4     2.627918488133   123.43952164   152.94369297
 C     27  26  19     2.614202969813   119.51378629   179.11781929
 C     28  27  26     2.619109962982   120.25331817     0.20961095
 C     29  28  27     2.619048750689   120.26688625     0.30028595
 C     30  29  28     2.611587539704   119.78018854   359.66883927
 C     19   4   3     3.452642714285   107.98154137   200.66647623
 C     32  19   4     2.621550182616   123.63777942   162.62115457
 C     33  32  19     2.616927349024   119.80395478   177.38060231
 C     34  33  32     2.619298102495   120.09593240   359.29135199
 C     35  34  33     2.617770541516   120.47340406     1.05795447
 C     36  35  34     2.624254232708   119.87972078     0.13318684
 P     37  36  35     3.455800977891   125.66235375   181.04156908
 C     38  37  36     3.456921968348    98.17878930    91.65624958
 C     39  38  37     2.629113133236   117.59334293   125.30296450
 C     40  39  38     2.612645719716   120.33027297   184.02574474
 C     41  40  39     2.617366417909   119.70617591     0.11691201
 C     42  41  40     2.619791883681   120.18856828   359.39323262
 C     43  42  41     2.613013605420   120.24974189     0.57105348
 C     38  37  36     3.421322926125   106.69019529   345.28074003
 C     45  38  37     2.631145021393   121.27689747   314.66141556
 C     46  45  38     2.610625099125   119.98214413   184.58619168
 C     47  46  45     2.618753032504   120.13824062     1.38414881
 C     48  47  46     2.617156658517   120.03884674     0.09955605
 C     49  48  47     2.612158677411   120.11009730   359.33847275
 H      6   5   4     2.079549312513   110.74418515   248.75690817
 H      8   7   6     2.043439000860   119.45302766     0.50860554
[...]
  65 H     1.0000    0     1.008   -6.462893    1.876401   -8.763894
  66 H     1.0000    0     1.008   -7.165664    4.084941   -2.785883
  67 H     1.0000    0     1.008  -10.872644    6.743621   -1.747078
  68 H     1.0000    0     1.008  -11.437303   10.901158   -3.832919
  69 H     1.0000    0     1.008   -8.293590   12.397115   -6.969538
  70 H     1.0000    0     1.008   -4.570176    9.740815   -8.005448
  71 H     1.0000    0     1.008   -3.019752    6.121492   -0.531918
  72 H     1.0000    0     1.008    0.431515    6.579542    2.612165
  73 H     1.0000    0     1.008    4.898718    6.154567    1.263104
  74 H     1.0000    0     1.008    5.944655    5.375206   -3.216049
  75 H     1.0000    0     1.008   -0.082371    0.835877  -10.710845
  76 H     1.0000    0     1.008    0.210714   -3.825211  -10.835917
  77 H     1.0000    0     1.008    3.347495   -6.053235   -8.143215
  78 H     1.0000    0     1.008    6.218592   -3.587559   -5.376553
  79 H     1.0000    0     1.008    5.955171    1.064478   -5.275293
  80 H     1.0000    0     1.008    5.162444    9.299005   -6.201156
  81 H     1.0000    0     1.008    9.372503   11.032842   -7.192080
  82 H     1.0000    0     1.008   12.234194    8.738873  -10.117657
  83 H     1.0000    0     1.008   10.845862    4.700619  -12.049512
  84 H     1.0000    0     1.008    6.678491    2.903618  -10.992346

--------------------------------
INTERNAL COORDINATES (ANGSTROEM)
--------------------------------
 O      0   0   0     0.000000000000     0.00000000     0.00000000
 C      1   0   0     1.218387413219     0.00000000     0.00000000
 O      2   1   0     1.311198583112   123.99276805     0.00000000
 Ni     3   2   1     1.897302141219   110.03096798   153.62115056
 N      4   3   2     1.874735798544    85.22077814    33.00543820
 C      5   4   3     1.456949280898   108.60341261   328.63738589
 C      6   5   4     1.519645767269   113.58858313   144.91309734
 C      7   6   5     1.394232605612   120.85554717   330.81466297
 C      8   7   6     1.390685753672   120.26391472   182.22012541
 C      9   8   7     1.392152307953   120.33435351     0.27948230
 C     10   9   8     1.392000591863   119.54729291     0.13366838
 C     11  10   9     1.390572810294   120.11706191   359.64344049
 C      5   4   3     1.384412554182   128.34803450   176.69490592
 C     13   5   4     1.410758016459   118.52476097   307.13653535
 C     14  13   5     1.383536224613   121.38825650   184.53274806
 C     15  14  13     1.395603973852   120.64704186     0.05206954
 C     16  15  14     1.391275081062   118.79416951   359.75958925
 C     17  16  15     1.389922505385   121.02009564     0.04736917
 P      4   3   2     2.172187611144    84.92397954   210.36953495
 C     19   4   3     1.831235613358   111.03417276    68.98735360
 C     20  19   4     1.397534508671   121.72456226   109.33405508
 C     21  20  19     1.391409034687   120.00643552   185.82813913
 C     22  21  20     1.390768454944   120.15080878     0.14321893
 C     23  22  21     1.393243670216   119.90043163   359.89991274
 C     24  23  22     1.389364116464   120.45224167     0.15065746
 C     19   4   3     1.820819495072   118.48807170   306.62458498
 C     26  19   4     1.397781036422   121.52181910   155.26293689
 C     27  26  19     1.390460556374   119.80177655   178.49737908
 C     28  27  26     1.392414832385   120.07127001     0.55476798
 C     29  28  27     1.392010095553   120.14252018     0.32051408
 C     30  29  28     1.389894466965   120.08188319   359.55410644
 C     19   4   3     1.827023238342   108.85011828   183.18645342
 C     32  19   4     1.393472841813   125.10273409   162.03526075
 C     33  32  19     1.391003623223   119.68301154   176.62270841
 C     34  33  32     1.393075909168   120.04617951   359.14773971
 C     35  34  33     1.391889908640   120.43377901     0.87080523
 C     36  35  34     1.395474717042   119.90361855     0.31346292
 P     37  36  35     1.849283523444   125.27295966   179.98361583
 C     38  37  36     1.840125382825   103.27502110    82.24425035
 C     39  38  37     1.396218644148   118.84375769   124.17298397
 C     40  39  38     1.391147490127   120.28306107   183.58692999
 C     41  40  39     1.390303927174   119.97236352     0.15340093
 C     42  41  40     1.393874455667   120.00651969   359.50551351
 C     43  42  41     1.389298550660   120.14459817     0.35485408
 C     38  37  36     1.823736101002   103.96265636   333.89183051
 C     45  38  37     1.399272391295   120.26883908   316.92642605
 C     46  45  38     1.388423694167   120.12385991   182.47884238
 C     47  46  45     1.392414405531   120.07641098     1.50637692
 C     48  47  46     1.390743748357   119.93670055     0.09882006
 C     49  48  47     1.389511888790   120.26568149   358.95663018
 H      6   5   4     1.108026487856   113.45841235   268.02320531
 H      8   7   6     1.085947689322   119.10143157     2.94502381
 H      9   8   7     1.086626751075   119.66956489   180.41100161
 H     10   9   8     1.086446632318   120.24538176   180.18787468
 H     11  10   9     1.086613030491   120.08973539   179.78129434
 H     12  11  10     1.087037932718   120.17065462   179.26119474
 H     14  13   5     1.088099095033   117.90634495     2.54522003
 H     15  14  13     1.086935841187   119.35510657   179.32340200
 H     16  15  14     1.085845347046   120.56317745   179.01465560
 H     17  16  15     1.087221567572   119.91539234   179.40071026
 H     18  17  16     1.084843155783   119.05288875   178.39210198
 H     21  20  19     1.086018254791   120.45522531     4.99618662
 H     22  21  20     1.086188139740   119.55461142   179.62932947
 H     23  22  21     1.086461281538   120.03703557   179.62563097
 H     24  23  22     1.086008648488   120.33098671   179.35784228
 H     25  24  23     1.086530932131   120.22965074   177.50810308
 H     27  26  19     1.087081923497   120.04800973   357.25788845
 H     28  27  26     1.086102169149   119.78255166   179.79404941
 H     29  28  27     1.086252120055   119.91378258   179.35294569
 H     30  29  28     1.085818728465   120.16703302   178.54007865
 H     31  30  29     1.087165170661   120.57554591   178.03375056
 H     33  32  19     1.086867314220   119.91552904   356.00980545
 H     34  33  32     1.086085239725   119.90226536   179.09852841
 H     35  34  33     1.086193682157   119.97198379   180.17715664
 H     36  35  34     1.086182694787   119.83860235   178.55322258
 H     40  39  38     1.087812016268   119.60035096     2.28980709
 H     41  40  39     1.085712811226   119.55336242   179.38945657
 H     42  41  40     1.086353321433   120.06559011   179.48194256
 H     43  42  41     1.086262245675   120.10786014   180.27415387
 H     44  43  42     1.086761345083   119.67280616   180.10111314
 H     46  45  38     1.087010799551   120.14717266     2.37674240
 H     47  46  45     1.086237487388   119.70711625   180.64130563
 H     48  47  46     1.086165995307   120.03554393   179.16373193
 H     49  48  47     1.085634807719   120.19378640   178.30443453
 H     50  49  48     1.085867167342   119.89052542   179.66927470

---------------------------
INTERNAL COORDINATES (A.U.)
---------------------------
 O      0   0   0     0.000000000000     0.00000000     0.00000000
 C      1   0   0     2.302418536000     0.00000000     0.00000000
 O      2   1   0     2.477806229268   123.99276805     0.00000000
 Ni     3   2   1     3.585381440207   110.03096798   153.62115056
 N      4   3   2     3.542737232707    85.22077814    33.00543820
 C      5   4   3     2.753235131911   108.60341261   328.63738589
 C      6   5   4     2.871714320711   113.58858313   144.91309734
 C      7   6   5     2.634717791590   120.85554717   330.81466297
 C      8   7   6     2.628015212785   120.26391472   182.22012541
 C      9   8   7     2.630786598738   120.33435351     0.27948230
 C     10   9   8     2.630499896878   119.54729291     0.13366838
 C     11  10   9     2.627801780733   120.11706191   359.64344049
 C      5   4   3     2.616160583765   128.34803450   176.69490592
 C     13   5   4     2.665946292342   118.52476097   307.13653535
 C     14  13   5     2.614504560879   121.38825650   184.53274806
 C     15  14  13     2.637309301992   120.64704186     0.05206954
 C     16  15  14     2.629128880157   118.79416951   359.75958925
 C     17  16  15     2.626572882552   121.02009564     0.04736917
 P      4   3   2     4.104839696560    84.92397954   210.36953495
 C     19   4   3     3.460533795930   111.03417276    68.98735360
 C     20  19   4     2.640957484092   121.72456226   109.33405508
 C     21  20  19     2.629382015822   120.00643552   185.82813913
 C     22  21  20     2.628171495542   120.15080878     0.14321893
 C     23  22  21     2.632848974527   119.90043163   359.89991274
 C     24  23  22     2.625517680415   120.45224167     0.15065746
 C     19   4   3     3.440850184990   118.48807170   306.62458498
 C     26  19   4     2.641423354027   121.52181910   155.26293689
 C     27  26  19     2.627589651567   119.80177655   178.49737908
 C     28  27  26     2.631282698018   120.07127001     0.55476798
 C     29  28  27     2.630517856249   120.14252018     0.32051408
 C     30  29  28     2.626519897617   120.08188319   359.55410644
 C     19   4   3     3.452573560777   108.85011828   183.18645342
 C     32  19   4     2.633282046084   125.10273409   162.03526075
 C     33  32  19     2.628615899184   119.68301154   176.62270841
 C     34  33  32     2.632531952092   120.04617951   359.14773971
 C     35  34  33     2.630290735898   120.43377901     0.87080523
 C     36  35  34     2.637065042021   119.90361855     0.31346292
 P     37  36  35     3.494639403283   125.27295966   179.98361583
 C     38  37  36     3.477333025616   103.27502110    82.24425035
 C     39  38  37     2.638470860515   118.84375769   124.17298397
 C     40  39  38     2.628887768232   120.28306107   183.58692999
 C     41  40  39     2.627293665275   119.97236352     0.15340093
 C     42  41  40     2.634040986280   120.00651969   359.50551351
 C     43  42  41     2.625393779002   120.14459817     0.35485408
 C     38  37  36     3.446361771439   103.96265636   333.89183051
 C     45  38  37     2.644241606305   120.26883908   316.92642605
 C     46  45  38     2.623740539822   120.12385991   182.47884238
 C     47  46  45     2.631281891381   120.07641098     1.50637692
 C     48  47  46     2.628124806858   119.93670055     0.09882006
 C     49  48  47     2.625796929640   120.26568149   358.95663018
 H      6   5   4     2.093866611178   113.45841235   268.02320531
 H      8   7   6     2.052143728583   119.10143157     2.94502381
 H      9   8   7     2.053426969325   119.66956489   180.41100161
 H     10   9   8     2.053086594203   120.24538176   180.18787468
 H     11  10   9     2.053401041178   120.08973539   179.78129434
 H     12  11  10     2.054203990021   120.17065462   179.26119474
 H     14  13   5     2.056209296179   117.90634495     2.54522003
 H     15  14  13     2.054011064987   119.35510657   179.32340200
 H     16  15  14     2.051950329710   120.56317745   179.01465560
 H     17  16  15     2.054551009603   119.91539234   179.40071026
 H     18  17  16     2.050056462690   119.05288875   178.39210198
 H     21  20  19     2.052277077994   120.45522531     4.99618662
 H     22  21  20     2.052598114021   119.55461142   179.62932947
 H     23  22  21     2.053114277215   120.03703557   179.62563097
 H     24  23  22     2.052258924712   120.33098671   179.35784228
 H     25  24  23     2.053245897762   120.22965074   177.50810308
 H     27  26  19     2.054287120545   120.04800973   357.25788845
 H     28  27  26     2.052435653150   119.78255166   179.79404941
 H     29  28  27     2.052719019295   119.91378258   179.35294569
 H     30  29  28     2.051900027882   120.16703302   178.54007865
 H     31  30  29     2.054444434888   120.57554591   178.03375056
 H     33  32  19     2.053881567787   119.91552904   356.00980545
 H     34  33  32     2.052403661174   119.90226536   179.09852841
 H     35  34  33     2.052608587672   119.97198379   180.17715664
 H     36  35  34     2.052587824552   119.83860235   178.55322258
 H     40  39  38     2.055666795935   119.60035096     2.28980709
 H     41  40  39     2.051699873307   119.55336242   179.38945657
 H     42  41  40     2.052910262184   120.06559011   179.48194256
 H     43  42  41     2.052738153945   120.10786014   180.27415387
 H     44  43  42     2.053681315139   119.67280616   180.10111314
 H     46  45  38     2.054152715767   120.14717266     2.37674240
 H     47  46  45     2.052691367563   119.70711625   180.64130563
 H     48  47  46     2.052556267109   120.03554393   179.16373193
 H     49  48  47     2.051552468042   120.19378640   178.30443453
 H     50  49  48     2.051991564094   119.89052542   179.66927470

[1769529070.148298] [node236:2533422:0]     ucp_context.c:1234 UCX  WARN  transport 'ib' is not available, please use one or more of: mm, posix, self, shm, sm, sysv, tcp
[1769529070.168021] [node236:2533423:0]     ucp_context.c:1234 UCX  WARN  transport 'ib' is not available, please use one or more of: mm, posix, self, shm, sm, sysv, tcp
[1769529070.169087] [node236:2533424:0]     ucp_context.c:1234 UCX  WARN  transport 'ib' is not available, please use one or more of: mm, posix, self, shm, sm, sysv, tcp
[1769529070.189425] [node236:2533431:0]     ucp_context.c:1234 UCX  WARN  transport 'ib' is not available, please use one or more of: mm, posix, self, shm, sm, sysv, tcp
[1769529070.190447] [node236:2533427:0]     ucp_context.c:1234 UCX  WARN  transport 'ib' is not available, please use one or more of: mm, posix, self, shm, sm, sysv, tcp
[1769529070.201671] [node236:2533440:0]     ucp_context.c:1234 UCX  WARN  transport 'ib' is not available, please use one or more of: mm, posix, self, shm, sm, sysv, tcp
[1769529070.207599] [node236:2533437:0]     ucp_context.c:1234 UCX  WARN  transport 'ib' is not available, please use one or more of: mm, posix, self, shm, sm, sysv, tcp
[1769529070.207637] [node236:2533433:0]     ucp_context.c:1234 UCX  WARN  transport 'ib' is not available, please use one or more of: mm, posix, self, shm, sm, sysv, tcp


           ************************************************************
           *        Program running with 8 parallel MPI-processes     *
           *              working on a common directory               *
           ************************************************************
------------------------------------------------------------------------------
                   ___                                                        
                  /   \      - P O W E R E D   B Y -                         
                 /     \                                                     
                 |  |  |   _    _      __       _____    __    __             
                 |  |  |  | |  | |    /  \     |  _  \  |  |  /  |          
                  \  \/   | |  | |   /    \    | | | |  |  | /  /          
                 / \  \   | |__| |  /  /\  \   | |_| |  |  |/  /          
                |  |  |   |  __  | /  /__\  \  |    /   |      \           
                |  |  |   | |  | | |   __   |  |    \   |  |\   \          
                \     /   | |  | | |  |  |  |  | |\  \  |  | \   \       
                 \___/    |_|  |_| |__|  |__|  |_| \__\ |__|  \__/        
                                                                              
                      - O R C A' S   B I G   F R I E N D -                    
                                      &                                       
                       - I N T E G R A L  F E E D E R -                       
                                                                              
 v1 FN, 2020, v2 2021, v3 2022-2024                                           
------------------------------------------------------------------------------


----------------------
SHARK INTEGRAL PACKAGE
----------------------

Number of atoms                             ...     85
Number of basis functions                   ...   1170
Number of shells                            ...    566
Maximum angular momentum                    ...      2
Integral batch strategy                     ... SHARK/LIBINT Hybrid
RI-J (if used) integral strategy            ... SPLIT-RIJ (Revised 2003 algorithm where possible)
Printlevel                                  ...      1
Contraction scheme used                     ... SEGMENTED contraction
Prescreening option                         ... SCHWARTZ
   Thresh                                   ... 2.500e-11
   Tcut                                     ... 2.500e-12
   Tpresel                                  ... 2.500e-12 
Coulomb Range Separation                    ... NOT USED
Exchange Range Separation                   ... NOT USED
Multipole approximations                    ... NOT USED
Finite Nucleus Model                        ... NOT USED
CABS basis                                  ... NOT available
Auxiliary Coulomb fitting basis             ... AVAILABLE
   # of basis functions in Aux-J            ...   1968
   # of shells in Aux-J                     ...    794
   Maximum angular momentum in Aux-J        ...      4
Auxiliary J/K fitting basis                 ... NOT available
Auxiliary Correlation fitting basis         ... NOT available
Auxiliary 'external' fitting basis          ... NOT available

Checking pre-screening integrals            ... done (  0.0 sec) Dimension = 566
   => SHARK Basis and OBASIS are compatible. Storing Pre-screening
Shell pair information
Shell pair cut-off parameter TPreSel        ...   2.5e-12
Total number of shell pairs                 ...    160461
Shell pairs after pre-screening             ...     90048
Total number of primitive shell pairs       ...    615664
Primitive shell pairs kept                  ...    195001
          la=0 lb=0:  26950 shell pairs
          la=1 lb=0:  35562 shell pairs
          la=1 lb=1:  11632 shell pairs
          la=2 lb=0:   8999 shell pairs
          la=2 lb=1:   6131 shell pairs
          la=2 lb=2:    774 shell pairs

Checking whether 4 symmetric matrices of dimension 1170 fit in memory
:Max Core in MB      =  12000.00
 MB in use           =    120.69
 MB left             =  11879.31
 MB needed           =     20.91
 Data fit in memory  = YES
Calculating RI/J V-Matrix + Cholesky decomp.... done (  0.1 sec)
Calculating Nuclear repulsion               ... done (  0.0 sec) ENN=   8101.849970292204 Eh

Diagonalization of the overlap matrix:
Smallest eigenvalue                        ... 1.652e-05
Time for diagonalization                   ...    0.100 sec
Threshold for overlap eigenvalues          ... 1.000e-07
Number of eigenvalues below threshold      ... 0
Time for construction of square roots      ...    0.054 sec
Total time needed                          ...    0.158 sec

-------------------
DFT GRID GENERATION
-------------------

General Integration Accuracy     IntAcc      ... 4.388
Radial Grid Type                 RadialGrid  ... OptM3 with GC (2021)
Angular Grid (max. ang.)         AngularGrid ... 4 (Lebedev-302)
Angular grid pruning method      GridPruning ... 4 (adaptive)
Weight generation scheme         WeightScheme... mBecke (2022)
Basis function cutoff            BFCut       ... 1.0000e-11
Integration weight cutoff        WCut        ... 1.0000e-14
Partially contracted basis set               ... off
Rotationally invariant grid construction     ... off
Angular grids for H and He will be reduced by one unit
Diffuse basis detected: some atoms will have their outermost
                        angular grid increased by 1.
Core-polarized basis detected: some atoms will have their core
                               angular grid increased.

