
                                 *****************
                                 * O   R   C   A *
                                 *****************

                                            #,                                       
                                            ###                                      
                                            ####                                     
                                            #####                                    
                                            ######                                   
                                           ########,                                 
                                     ,,################,,,,,                         
                               ,,#################################,,                 
                          ,,##########################################,,             
                       ,#########################################, ''#####,          
                    ,#############################################,,   '####,        
                  ,##################################################,,,,####,       
                ,###########''''           ''''###############################       
              ,#####''   ,,,,##########,,,,          '''####'''          '####       
            ,##' ,,,,###########################,,,                        '##       
           ' ,,###''''                  '''############,,,                           
         ,,##''                                '''############,,,,        ,,,,,,###''
      ,#''                                            '''#######################'''  
     '                                                          ''''####''''         
             ,#######,   #######,   ,#######,      ##                                
            ,#'     '#,  ##    ##  ,#'     '#,    #''#        ,####,    ,#,          
            ##       ##  ##   ,#'  ##            #'  '#       #'       ,# #          
            ##       ##  #######   ##           ,######,      #####,      #          
            '#,     ,#'  ##    ##  '#,     ,#' ,#      #,     #,   #      #          
             '#######'   ##     ##  '#######'  #'      '#     '####' #    #          



                #########################################################
                #                        -***-                          #
                #          Department of theory and spectroscopy        #
                #                                                       #
                #                      Frank Neese                      #
                #                                                       #
                #     Directorship, Architecture, Infrastructure        #
                #                    SHARK, DRIVERS                     #
                #        Core code/Algorithms in most modules           #
                #                                                       #
                #        Max Planck Institute fuer Kohlenforschung      #
                #                Kaiser Wilhelm Platz 1                 #
                #                 D-45470 Muelheim/Ruhr                 #
                #                      Germany                          #
                #                                                       #
                #                  All rights reserved                  #
                #                        -***-                          #
                #########################################################


                         Program Version 6.1.0  -  RELEASE   -
                                (GIT: $679e74b$)
                          ($2025-06-10 18:02:51 +0200$)


 With contributions from (in alphabetic order):
[Max-Planck-Institut fuer Kohlenforschung]                               
  Daniel Aravena         : Magnetic Suceptibility                        
  Michael Atanasov       : Ab Initio Ligand Field Theory (pilot matlab implementation)
  Alexander A. Auer      : GIAO ZORA, VPT2 properties, NMR spectrum      
  Ute Becker             : All parallelization in ORCA, NUMFREQ, NUMCALC 
  Giovanni Bistoni       : ED, misc. LED, open-shell LED, HFLD           
  Dmytro Bykov           : pre 5.0 version of the SCF Hessian            
  Marcos Casanova-Páez   : Triplet and SCS-CIS(D). UHF-(DLPNO)-IP/EA/STEOM-CCSD. UHF-CVS-IP/STEOM-CCSD   
  Vijay G. Chilkuri      : MRCI spin determinant printing, contributions to CSF-ICE 
  Pauline Colinet        : FMM embedding                                 
  Dipayan Datta          : RHF DLPNO-CCSD density                        
  Achintya Kumar Dutta   : EOM-CC, STEOM-CC                              
  Nicolas Foglia         : Exact transition moments, OPA infrastructure, MCD improvements    
  Dmitry Ganyushin       : Spin-Orbit,Spin-Spin,Magnetic field MRCI      
  Miquel Garcia-Rates    : C-PCM and meta-GGA Hessian, CCSD/C-PCM, Gaussian charge scheme 
  Tiago L. C. Gouveia    : GS-ROHF, GS-ROCIS                             
  Yang Guo               : DLPNO-NEVPT2, F12-NEVPT2, CIM, IAO-localization        
  Andreas Hansen         : Spin unrestricted coupled pair/coupled cluster methods 
  Ingolf Harden          : AUTO-CI MPn and infrastructure                
  Benjamin Helmich-Paris : MC-RPA, TRAH-(SCF,CASSCF), AVAS, COSX integrals, SCF dyn. polar., MC-PDFT, srDFT 
  Lee Huntington         : MR-EOM, pCC                                   
  Robert Izsak           : Overlap fitted RIJCOSX, COSX-SCS-MP3, EOM     
  Riya Kayal             : Wick's Theorem for AUTO-CI, AUTO-CI UHF-CCSDT 
  Emily Kempfer          : AUTO-CI RHF CISDT and CCSDT, approximate NEVPT4
  Christian Kollmar      : KDIIS, OOCD, Brueckner-CCSD(T), CCSD density, CASPT2, CASPT2-K, improved NEVPT2 
  Axel Koslowski         : Symmetry handling                             
  Simone Kossmann        : meta-GGA functionals, TD-DFT gradient, OOMP2, (MP2 Hessian; deprecated post 5.0) 
  Lucas Lang             : DCDCAS, Hyperfine gauge corrections, ICE-SOC+SSC
  Marvin Lechner         : AUTO-CI (C++ implementation), FIC-MRCC        
  Spencer Leger          : CASSCF response                               
  Dagmar Lenk            : GEPOL surface, SMD, ORCA-2-JSON               
  Dimitrios Liakos       : Extrapolation schemes; Compound Job, Property file
  Dimitrios Manganas     : Further ROCIS development; embedding schemes. LFT, Crystal Embedding 
  Dimitrios Pantazis     : SARC Basis sets                               
  Anastasios Papadopoulos: AUTO-CI, single reference methods and gradients 
  Taras Petrenko         : pre 6.0 DFT Hessian and TD-DFT gradient,  ECA, NRVS 
  Petra Pikulova         : Analytic Raman intensities                    
  Peter Pinski           : DLPNO-MP2, DLPNO-MP2 Gradient                 
  Shashank Vittal Rao    : ES-AILFT, MagRelax                            
  Christoph Reimann      : Effective Core Potentials                     
  Marius Retegan         : Local ZFS, SOC                                
  Christoph Riplinger    : Optimizer, TS searches, QM/MM, DLPNO-CCSD(T), (RO)-DLPNO pert. Triples 
  Michael Roemelt        : Original ROCIS implementation, recursive CI coupling coefficients
  Masaaki Saitow         : Open-shell DLPNO-CCSD energy and density      
  Barbara Sandhoefer     : DKH picture change effects                    
  Yorick L. A. Schmerwitz: GMF and freeze-and-release deltaSCF, NEB S-IDPP initial path                    
  Kantharuban Sivalingam : CASSCF convergence/infrastructure, NEVPT2, NEVPT3, NEVPT4(SD), FIC-MRCI and CEPA variants
  Bernardo de Souza      : ESD, SOC TD-DFT                               
  Georgi L. Stoychev     : AutoAux, RI-MP2 NMR, DLPNO-MP2 response, X2C  
  Van Anh Tran           : RI-MP2 g-tensors                              
  Willem Van den Heuvel  : Paramagnetic NMR                              
  Zikuan Wang            : NOTCH, Electric field optimization            
  Frank Wennmohs         : Technical directorship and infrastructure     
  Hang Xu                : AUTO-CI-Response properties                   
                                                                         
[FACCTs GmbH]                                                            
  Markus Bursch, Nicolas Foglia, Miquel Garcia-Rates, Ingolf Harden, Hagen Neugebauer, Anastasios Papadopoulos, 
  Christoph Riplinger, Bernardo de Souza, Georgi L. Stoychev                                                    
                                                                 
  APM, various basis sets, CI-OPT, improved COSX, DLPNO-Multilevel,           
  DOCKER, DRACO, updates on ESD, Fragmentator, GOAT, IRC, LR-CPCM, L-BFGS, MBIS, meta-GGA TD-DFT gradient, ML-optimized integration grids, 
  MM, NACMEs, nearIR, NEB, NEB-TS, NL-DFT gradient (VV10), 2- and 3-layer-ONIOM, interface openCOSMO-RS, QMMM,   
  Crystal-QMMM, RESP, rigid body optimization, SF, symmetry and pop. for TD-DFT, various functionals, SOLVATOR                                   
                                                                         
[Other institutions]                                                     
  V. Asgeirsson          : NEB                                           
  Christoph Bannwarth    : sTDA-DFT, sTD-DFT, PBEh-3c, B97-3c, D3        
  Giovanni Bistoni       : ETS/NOCV, ADLD/ADEX, COVALED                  
  Martin Brehm           : Molecular dynamics                            
  Ronald Cardenas        : ETS/NOCV                                      
  Martina Colucci        : COVALED                                       
  Sebastian Ehlert       : rSCAN, r2SCAN, r2SCAN-3c, D4, dhf basis sets  
  Marvin Friede          : D4 for Fr, Ra, Ac-Lr                          
  Lars Goerigk           : TD-DFT with DH, B97 family of functionals     
  Stefan Grimme          : VdW corrections, initial TS optimization, DFT functionals, gCP, sTDA/sTD-DF 
  Waldemar Hujo          : DFT-NL                                        
  H. Jonsson             : NEB                                           
  Holger Kruse           : gCP                                           
  Marcel Mueller         : wB97X-3c, vDZP basis set                      
  Hagen Neugebauer       : wr2SCAN, Native XTB                           
  Gianluca Regni         : ADLD/ADEX                                     
  Tobias Risthaus        : pre 6.0 range-separated hybrid DFT and stability analysis
  Lukas Wittmann         : regularized MP2, r2SCAN double-hybrids, wr2SCAN        
                                                                         
We gratefully acknowledge several colleagues who have allowed us to      
interface, adapt or use parts of their codes:                            
  Ed Valeev, F. Pavosevic, A. Kumar             : LibInt (2-el integral package), F12 methods 
  Garnet Chan, S. Sharma, J. Yang, R. Olivares  : DMRG                   
  Ulf Ekstrom                                   : XCFun DFT Library      
  Mihaly Kallay                                 : mrcc  (arbitrary order and MRCC methods)
  Frank Weinhold                                : gennbo (NPA and NBO analysis)           
  Simon Mueller                                 : openCOSMO-RS                            
  Christopher J. Cramer and Donald G. Truhlar   : smd solvation model                     
  S Lehtola, MJT Oliveira, MAL Marques          : LibXC Library                           
  Liviu Ungur et al                             : ANISO software                          


 Your calculation uses the libint2 library for the computation of 2-el integrals
 For citations please refer to: http://libint.valeyev.net

 Your ORCA version has been built with support for libXC version: 7.0.0
 For citations please refer to: https://libxc.gitlab.io

 This ORCA versions uses:
   CBLAS   interface :  Fast vector & matrix operations
   LAPACKE interface :  Fast linear algebra routines
   SCALAPACK package :  Parallel linear algebra routines
   Shared memory     :  Shared parallel matrices
   BLAS/LAPACK       :  OpenBLAS 0.3.29  USE64BITINT DYNAMIC_ARCH NO_AFFINITY Cooperlake SINGLE_THREADED
        Core in use  :  Cooperlake
   Copyright (c) 2011-2014, The OpenBLAS Project


  ***********************************
  * Starting time: Tue Jan 27 15:58:57 2026
  * Host name:     node237.cluster
  * Process ID:    48568
  * Working dir.:  /scratch/56627367
  ***********************************

NOTE: MaxCore=12000 MB was set to SCF,MP2,MDCI,CIPSI,MRCI,RASCI and CIS
      => If you want to overwrite this, your respective input block should be placed after the MaxCore statement
Your calculation utilizes the geometrical counterpoise correction gCP
Please cite in your paper:
H.Kruse, S. Grimme J.Chem.Phys., 136, (2012), 154101 
   

Your calculation utilizes the atom-pairwise dispersion correction
based on EEQ partial charges (D4)


================================================================================

----- Orbital basis set information -----
Your calculation utilizes the basis: def2-mTZVPP
   Stefan Grimme, Andreas Hansen, Sebastian Ehlert, and Jan-Michael Mewes 
   J. Chem. Phys. 154, 064103 (2021). DOI: 10.1063/5.0040021

----- AuxJ basis set information -----
Your calculation utilizes the basis: def2-mTZVPP/J
   Stefan Grimme, Andreas Hansen, Sebastian Ehlert, and Jan-Michael Mewes 
   J. Chem. Phys. 154, 000000 (2021). DOI: 10.1063/5.0040021

================================================================================
                                        WARNINGS
                       Please study these warnings very carefully!
================================================================================



WARNING: SCAN, rSCAN, or r2SCAN functional requested.
  ===> : libXC variant has now been activated.



WARNING: Geometry Optimization
  ===> : Switching off AutoStart
         For restart on a previous wavefunction, please use MOREAD

================================================================================
                                       INPUT FILE
================================================================================
NAME = 17_4_confsstruct_1.inp
|  1> !r2scan-3c opt freq 
|  2> %pal 
|  3> nprocs 8 
|  4> end 
|  5> %maxcore 12000
|  6>  
|  7> * XYZ 0 1 
|  8> O      4.69944700      5.97987200     -2.95136000
|  9> C      4.80656600      5.14585600     -2.09541700
| 10> O      3.98090800      4.63263700     -1.31573000
| 11> Ni      4.57017800      3.17090600     -0.40405800
| 12> N      6.27443100      3.87597800     -0.61095000
| 13> C      6.33499500      4.47494800     -1.88692900
| 14> C      7.35496100      5.52967600     -2.16165600
| 15> C      7.32816500      6.73955900     -1.47420700
| 16> C      8.26053900      7.72055200     -1.75070600
| 17> C      9.22721700      7.50974800     -2.72008400
| 18> C      9.25070800      6.31559300     -3.41921300
| 19> C      8.31714900      5.33252700     -3.14467100
| 20> C      6.96491300      4.43493600      0.43855100
| 21> C      8.34731800      4.66295500      0.39596700
| 22> C      8.98935700      5.22423600      1.47938800
| 23> C      8.28160800      5.57824400      2.61881700
| 24> C      6.91850800      5.32953200      2.68460700
| 25> C      6.27101800      4.74693200      1.61652800
| 26> C      0.87164100      1.38739900      0.70572900
| 27> C      2.35781000      1.59325200      0.57027400
| 28> C      3.19184400      0.68591100      1.21356300
| 29> C      4.57339800      0.68310000      1.06832800
| 30> C      5.29946200     -0.53218900      1.58462900
| 31> N      5.23379600      1.66525000      0.47505600
| 32> C      6.61834200      1.42304200      0.21803200
| 33> C      6.98937600      1.02886200     -1.07908600
| 34> C      5.93093500      0.83237400     -2.12335700
| 35> C      8.32594700      0.82255400     -1.37412700
| 36> C      9.29560800      0.98299100     -0.39949100
| 37> C      8.92346700      1.33866500      0.88138700
| 38> C      7.59164000      1.55516100      1.21358400
| 39> C      7.25189100      1.91416400      2.62943900
| 40> N      2.82231700      2.55293700     -0.20997400
| 41> C      1.82756700      3.34352800     -0.85957500
| 42> C      1.40418500      2.99714900     -2.14584700
| 43> C      2.05461000      1.85381100     -2.86544300
| 44> C      0.41074800      3.75151000     -2.75092000
| 45> C     -0.14849400      4.83633000     -2.10109800
| 46> C      0.29794500      5.19142300     -0.84122800
| 47> C      1.28640200      4.45688300     -0.20576700
| 48> C      1.80897500      4.85971200      1.14014900
| 49> H      6.33573500      3.71442200     -2.67955900
| 50> H      6.56768400      6.91445400     -0.72676100
| 51> H      8.22942900      8.65599400     -1.21190800
| 52> H      9.95512000      8.27799100     -2.93575400
| 53> H      9.99626000      6.14937200     -4.18327000
| 54> H      8.33818200      4.40076100     -3.69301500
| 55> H      8.90814300      4.36768300     -0.47699100
| 56> H     10.05585300      5.38981300      1.43538900
| 57> H      8.79087400      6.03370500      3.45477100
| 58> H      6.36311300      5.58988700      3.57403700
| 59> H      5.20092900      4.53981100      1.65258700
| 60> H      0.66193400      0.57351000      1.39393200
| 61> H      0.38265500      2.28903300      1.06690400
| 62> H      0.43468200      1.14989300     -0.26326000
| 63> H      2.73927500     -0.10821500      1.78366500
| 64> H      4.60787500     -1.36421900      1.68406400
| 65> H      5.72766600     -0.32884000      2.56365700
| 66> H      6.10866700     -0.82002000      0.91772800
| 67> H      5.18067500      1.63839800     -2.06121800
| 68> H      6.36316200      0.81701500     -3.12096000
| 69> H      5.40438000     -0.10874800     -1.95829700
| 70> H      8.60917000      0.52966000     -2.37501200
| 71> H     10.33637000      0.82523600     -0.63939300
| 72> H      9.67465300      1.45585000      1.64887300
| 73> H      6.21006200      2.20601500      2.72510800
| 74> H      7.44537400      1.06508400      3.28618500
| 75> H      7.87871500      2.73734100      2.96596400
| 76> H      2.08393500      0.95705300     -2.24740700
| 77> H      3.08417200      2.12294600     -3.10942700
| 78> H      1.53009600      1.63044600     -3.79106000
| 79> H      0.07955700      3.48924000     -3.74548200
| 80> H     -0.91998200      5.41675400     -2.58469900
| 81> H     -0.11943100      6.05606800     -0.34538700
| 82> H      1.43023000      4.20851300      1.92908900
| 83> H      1.52596600      5.88324300      1.37127500
| 84> H      2.89985700      4.78286100      1.14202400
| 85> 
| 86> **                         ****END OF INPUT****
================================================================================

                       *****************************
                       * Geometry Optimization Run *
                       *****************************

Geometry optimization settings:
Update method            Update   .... BFGS
Choice of coordinates    CoordSys .... (2022) Redundant Internals
Initial Hessian          InHess   .... Almloef's Model
Max. no of cycles        MaxIter  .... 231

Convergence Tolerances:
Energy Change            TolE     ....  5.0000e-06 Eh
Max. Gradient            TolMAXG  ....  3.0000e-04 Eh/bohr
RMS Gradient             TolRMSG  ....  1.0000e-04 Eh/bohr
Max. Displacement        TolMAXD  ....  4.0000e-03 bohr
RMS Displacement         TolRMSD  ....  2.0000e-03 bohr
Strict Convergence                .... False

------------------------------------------------------------------------------
                        ORCA OPTIMIZATION COORDINATE SETUP
------------------------------------------------------------------------------

The optimization will be done in redundant internal coordinates (2022)
Making redundant internal coordinates   ...  (2022 redundants) done
Evaluating the initial hessian          ...  (Almloef) done
Evaluating the coordinates              ...  done
Calculating the B-matrix                .... done
Calculating the G-matrix                .... done
The number of degrees of freedom        ....  525

    -----------------------------------------------------------------
                    Redundant Internal Coordinates


    -----------------------------------------------------------------
         Definition                    Initial Value    Approx d2E/dq
    -----------------------------------------------------------------
      1. B(C   1,O   0)                  1.1999         1.125151   
      2. B(O   2,C   1)                  1.2462         0.949069   
      3. B(Ni  3,C   1)                  2.6109         0.071274   
      4. B(Ni  3,O   2)                  1.8207         1.163603   
      5. B(N   4,Ni  3)                  1.8559         1.022510   
      6. B(C   5,Ni  3)                  2.6484         0.062111   
      7. B(C   5,C   1)                  1.6822         0.213603   
      8. B(C   5,N   4)                  1.4109         0.518296   
      9. B(C   6,C   5)                  1.4927         0.428383   
     10. B(C   7,C   6)                  1.3918         0.620667   
     11. B(C   8,C   7)                  1.3813         0.644976   
     12. B(C   9,C   8)                  1.3851         0.636064   
     13. B(C  10,C   9)                  1.3840         0.638820   
     14. B(C  11,C  10)                  1.3832         0.640531   
     15. B(C  11,C   6)                  1.3896         0.625712   
     16. B(C  12,N   4)                  1.3750         0.591278   
     17. B(C  13,C  12)                  1.4017         0.598443   
     18. B(C  14,C  13)                  1.3788         0.651073   
     19. B(C  15,C  14)                  1.3873         0.631085   
     20. B(C  16,C  15)                  1.3872         0.631337   
     21. B(C  17,C  16)                  1.3782         0.652456   
     22. B(C  17,C  12)                  1.4023         0.597180   
     23. B(C  19,C  18)                  1.5065         0.407318   
     24. B(C  20,C  19)                  1.3902         0.624300   
     25. B(C  21,C  20)                  1.3892         0.626705   
     26. B(C  22,C  21)                  1.5069         0.406703   
     27. B(N  23,C  21)                  1.3239         0.713397   
     28. B(N  23,Ni  3)                  1.8655         0.986985   
     29. B(C  24,N  23)                  1.4289         0.485118   
     30. B(C  24,Ni  3)                  2.7635         0.040692   
     31. B(C  25,C  24)                  1.4055         0.590114   
     32. B(C  26,C  25)                  1.4998         0.417403   
     33. B(C  27,C  25)                  1.3842         0.638231   
     34. B(C  28,C  27)                  1.3842         0.638347   
     35. B(C  29,C  28)                  1.3804         0.647106   
     36. B(C  30,C  29)                  1.3896         0.625715   
     37. B(C  30,C  24)                  1.3985         0.605520   
     38. B(C  31,C  30)                  1.4997         0.417633   
     39. B(N  32,C  19)                  1.3212         0.720533   
     40. B(N  32,Ni  3)                  1.8640         0.992501   
     41. B(C  33,N  32)                  1.4271         0.488343   
     42. B(C  33,Ni  3)                  2.7855         0.037530   
     43. B(C  34,C  33)                  1.3978         0.607242   
     44. B(C  35,C  34)                  1.4994         0.418076   
     45. B(C  36,C  34)                  1.3864         0.633126   
     46. B(C  37,C  36)                  1.3827         0.641783   
     47. B(C  38,C  37)                  1.3830         0.641087   
     48. B(C  39,C  38)                  1.3858         0.634541   
     49. B(C  39,C  33)                  1.4000         0.602352   
     50. B(C  40,C  39)                  1.4989         0.418716   
     51. B(H  41,C   5)                  1.0985         0.349052   
     52. B(H  42,C   7)                  1.0806         0.372816   
     53. B(H  43,C   8)                  1.0800         0.373624   
     54. B(H  44,C   9)                  1.0801         0.373477   
     55. B(H  45,C  10)                  1.0804         0.373029   
     56. B(H  46,C  11)                  1.0813         0.371731   
     57. B(H  47,C  13)                  1.0788         0.375253   
     58. B(H  48,C  14)                  1.0802         0.373343   
     59. B(H  49,C  15)                  1.0796         0.374073   
     60. B(H  50,C  16)                  1.0804         0.372982   
     61. B(H  51,C  17)                  1.0905         0.359379   
     62. B(H  52,C  18)                  1.0863         0.365048   
     63. B(H  53,C  18)                  1.0874         0.363519   
     64. B(H  54,C  18)                  1.0892         0.361205   
     65. B(H  55,C  20)                  1.0773         0.377366   
     66. B(H  56,C  22)                  1.0865         0.364777   
     67. B(H  57,C  22)                  1.0878         0.363086   
     68. B(H  58,C  22)                  1.0874         0.363570   
     69. B(H  59,C  26)                  1.1029         0.343411   
     70. B(H  60,C  26)                  1.0873         0.363661   
     71. B(H  61,C  26)                  1.0910         0.358819   
     72. B(H  62,C  27)                  1.0806         0.372704   
     73. B(H  63,C  28)                  1.0796         0.374067   
     74. B(H  64,C  29)                  1.0803         0.373164   
     75. B(H  65,C  31)                  1.0862         0.365220   
     76. B(H  66,C  31)                  1.0907         0.359138   
     77. B(H  67,C  31)                  1.0880         0.362735   
     78. B(H  68,C  35)                  1.0895         0.360766   
     79. B(H  69,C  35)                  1.0918         0.357767   
     80. B(H  70,C  35)                  1.0871         0.363965   
     81. B(H  71,C  36)                  1.0806         0.372796   
     82. B(H  72,C  37)                  1.0798         0.373857   
     83. B(H  73,C  38)                  1.0806         0.372768   
     84. B(H  74,C  40)                  1.0908         0.358989   
     85. B(H  75,C  40)                  1.0868         0.364361   
     86. B(H  76,C  40)                  1.0936         0.355386   
     87. A(Ni  3,C   1,C   5)           72.5598         0.280901   
     88. A(O   2,C   1,C   5)          111.1121         0.385087   
     89. A(O   2,C   1,Ni  3)           39.0323         0.355738   
     90. A(O   0,C   1,Ni  3)          168.4653         0.366213   
     91. A(O   0,C   1,O   2)          132.3317         0.516718   
     92. A(O   0,C   1,C   5)          116.5357         0.396715   
     93. A(C   1,O   2,Ni  3)          115.4342         0.587958   
     94. A(N  23,Ni  3,N  32)           90.9696         0.651191   
     95. A(N  23,Ni  3,C  33)          118.5106         0.358458   
     96. A(N  23,Ni  3,C  24)           28.3346         0.363438   
     97. A(C   1,Ni  3,N  23)          152.0742         0.400558   
     98. A(C   1,Ni  3,C  24)          123.8582         0.241281   
     99. A(C   1,Ni  3,N  32)          113.7730         0.400951   
    100. A(N   4,Ni  3,C   5)           30.5262         0.393430   
    101. A(N   4,Ni  3,N  23)           91.8621         0.654994   
    102. A(N  32,Ni  3,C  33)           27.6669         0.358798   
    103. A(C   1,Ni  3,C  33)           86.3497         0.238518   
    104. A(O   2,Ni  3,C  24)          149.3567         0.373856   
    105. A(C  24,Ni  3,C  33)          143.6810         0.220704   
    106. A(O   2,Ni  3,N   4)           86.3524         0.676481   
    107. A(C  24,Ni  3,N  32)          117.5058         0.363784   
    108. A(O   2,Ni  3,N  32)           90.8489         0.672533   
    109. A(C   1,Ni  3,C   5)           37.2983         0.256577   
    110. A(O   2,Ni  3,C   5)           62.6132         0.402469   
    111. A(C   5,Ni  3,N  23)          115.1007         0.391004   
    112. A(C   5,Ni  3,C  33)          122.2779         0.233933   
    113. A(O   2,Ni  3,C  33)           63.2375         0.368687   
    114. A(C   5,Ni  3,C  24)           86.7662         0.236611   
    115. A(N   4,Ni  3,C  24)           65.4678         0.365643   
    116. A(N   4,Ni  3,C  33)          149.5826         0.360623   
    117. A(C   1,Ni  3,N   4)           63.7225         0.403061   
    118. A(C   5,Ni  3,N  32)          147.8205         0.391385   
    119. A(C   1,Ni  3,O   2)           25.5336         0.412386   
    120. A(Ni  3,N   4,C  12)          122.0378         0.524355   
    121. A(Ni  3,N   4,C   5)          107.5491         0.511566   
    122. A(C   5,N   4,C  12)          119.7460         0.411441   
    123. A(C   6,C   5,H  41)          110.8506         0.330019   
    124. A(N   4,C   5,H  41)          111.0193         0.338569   
    125. A(C   1,C   5,H  41)          100.7959         0.294895   
    126. A(C   1,C   5,C   6)          108.4346         0.338354   
    127. A(Ni  3,C   5,C   6)          154.9963         0.306748   
    128. A(N   4,C   5,C   6)          119.7190         0.391246   
    129. A(Ni  3,C   5,N   4)           41.9247         0.314473   
    130. A(C   1,C   5,N   4)          104.0287         0.347200   
    131. A(C   1,C   5,Ni  3)           70.1419         0.275016   
    132. A(Ni  3,C   5,H  41)           93.6443         0.268798   
    133. A(C   7,C   6,C  11)          119.0825         0.434867   
    134. A(C   5,C   6,C  11)          120.2033         0.407026   
    135. A(C   5,C   6,C   7)          120.6745         0.406444   
    136. A(C   8,C   7,H  42)          119.9043         0.357378   
    137. A(C   6,C   7,H  42)          119.7299         0.355055   
    138. A(C   6,C   7,C   8)          120.3634         0.437249   
    139. A(C   9,C   8,H  43)          120.0716         0.356666   
    140. A(C   7,C   8,H  43)          119.7244         0.357510   
    141. A(C   7,C   8,C   9)          120.2030         0.439186   
    142. A(C   8,C   9,H  44)          120.1214         0.356642   
    143. A(C  10,C   9,H  44)          120.0945         0.356904   
    144. A(C   8,C   9,C  10)          119.7820         0.438427   
    145. A(C   9,C  10,C  11)          120.1002         0.438981   
    146. A(C   9,C  10,H  45)          120.1137         0.356831   
    147. A(C  11,C  10,H  45)          119.7858         0.356993   
    148. A(C  10,C  11,H  46)          119.9086         0.356782   
    149. A(C   6,C  11,C  10)          120.4574         0.437342   
    150. A(C   6,C  11,H  46)          119.6328         0.355367   
    151. A(C  13,C  12,C  17)          118.5112         0.428420   
    152. A(N   4,C  12,C  17)          118.8899         0.424711   
    153. A(N   4,C  12,C  13)          122.5599         0.424871   
    154. A(C  12,C  13,H  47)          119.5222         0.353257   
    155. A(C  14,C  13,H  47)          120.3447         0.358347   
    156. A(C  12,C  13,C  14)          120.1048         0.435123   
    157. A(C  15,C  14,H  48)          119.8714         0.356144   
    158. A(C  13,C  14,H  48)          119.3507         0.358036   
    159. A(C  13,C  14,C  15)          120.7778         0.439309   
    160. A(C  14,C  15,H  49)          120.1963         0.356263   
    161. A(C  16,C  15,H  49)          120.1611         0.356287   
    162. A(C  14,C  15,C  16)          119.6383         0.436877   
    163. A(C  17,C  16,H  50)          119.8899         0.358107   
    164. A(C  15,C  16,H  50)          120.0641         0.356110   
    165. A(C  15,C  16,C  17)          120.0458         0.439509   
    166. A(C  12,C  17,H  51)          118.1033         0.350560   
    167. A(C  12,C  17,C  16)          120.8360         0.435124   
    168. A(C  16,C  17,H  51)          121.0411         0.355853   
    169. A(C  19,C  18,H  52)          110.4748         0.329712   
    170. A(C  19,C  18,H  53)          111.1113         0.329484   
    171. A(H  53,C  18,H  54)          107.2110         0.291412   
    172. A(C  19,C  18,H  54)          110.2176         0.329137   
    173. A(H  52,C  18,H  54)          108.8326         0.291604   
    174. A(H  52,C  18,H  53)          108.9049         0.291897   
    175. A(C  18,C  19,C  20)          117.4555         0.403257   
    176. A(C  20,C  19,N  32)          122.4405         0.443621   
    177. A(C  18,C  19,N  32)          119.9474         0.410950   
    178. A(C  19,C  20,C  21)          123.3386         0.435449   
    179. A(C  21,C  20,H  55)          118.1414         0.356371   
    180. A(C  19,C  20,H  55)          118.2924         0.356139   
    181. A(C  22,C  21,N  23)          120.7636         0.410115   
    182. A(C  20,C  21,N  23)          122.7818         0.443131   
    183. A(C  20,C  21,C  22)          116.4236         0.403423   
    184. A(H  57,C  22,H  58)          107.9710         0.291656   
    185. A(C  21,C  22,H  58)          111.2176         0.329409   
    186. A(H  56,C  22,H  58)          109.0938         0.291870   
    187. A(H  56,C  22,H  57)          108.1417         0.291809   
    188. A(C  21,C  22,H  57)          110.3218         0.329337   
    189. A(C  21,C  22,H  56)          110.0151         0.329590   
    190. A(C  21,N  23,C  24)          115.9895         0.420439   
    191. A(Ni  3,N  23,C  24)          113.3740         0.501967   
    192. A(Ni  3,N  23,C  21)          129.2330         0.539634   
    193. A(Ni  3,C  24,C  30)          128.0457         0.302995   
    194. A(N  23,C  24,C  25)          117.9907         0.409142   
    195. A(Ni  3,C  24,C  25)           99.5135         0.301750   
    196. A(Ni  3,C  24,N  23)           38.2914         0.290847   
    197. A(C  25,C  24,C  30)          119.9815         0.428409   
    198. A(N  23,C  24,C  30)          122.0251         0.411015   
    199. A(C  26,C  25,C  27)          120.8971         0.406584   
    200. A(C  24,C  25,C  27)          119.5641         0.432475   
    201. A(C  24,C  25,C  26)          119.5383         0.400999   
    202. A(H  60,C  26,H  61)          108.5715         0.291126   
    203. A(C  25,C  26,H  61)          110.3825         0.330108   
    204. A(H  59,C  26,H  61)          107.0728         0.288522   
    205. A(H  59,C  26,H  60)          109.4160         0.289128   
    206. A(C  25,C  26,H  60)          111.1086         0.330840   
    207. A(C  25,C  26,H  59)          110.1876         0.327724   
    208. A(C  25,C  27,C  28)          120.6020         0.438637   
    209. A(C  28,C  27,H  62)          119.9988         0.356733   
    210. A(C  25,C  27,H  62)          119.3987         0.356722   
    211. A(C  27,C  28,C  29)          119.6275         0.439732   
    212. A(C  29,C  28,H  63)          120.2449         0.357782   
    213. A(C  27,C  28,H  63)          120.1268         0.356955   
    214. A(C  30,C  29,H  64)          118.6660         0.355599   
    215. A(C  28,C  29,H  64)          119.9795         0.357635   
    216. A(C  28,C  29,C  30)          121.3543         0.438149   
    217. A(C  29,C  30,C  31)          118.6939         0.405203   
    218. A(C  24,C  30,C  31)          122.4815         0.402863   
    219. A(C  24,C  30,C  29)          118.8236         0.432939   
    220. A(H  66,C  31,H  67)          107.4897         0.291050   
    221. A(H  65,C  31,H  67)          108.7879         0.291820   
    222. A(C  30,C  31,H  67)          110.0364         0.330731   
    223. A(H  65,C  31,H  66)          109.0435         0.291363   
    224. A(C  30,C  31,H  66)          109.9945         0.330186   
    225. A(C  30,C  31,H  65)          111.3946         0.331105   
    226. A(C  19,N  32,C  33)          115.2241         0.421685   
    227. A(Ni  3,N  32,C  33)          114.9962         0.503109   
    228. A(Ni  3,N  32,C  19)          129.1960         0.541220   
    229. A(C  34,C  33,C  39)          120.6478         0.430208   
    230. A(N  32,C  33,C  39)          119.8311         0.411115   
    231. A(Ni  3,C  33,C  39)          110.7024         0.298863   
    232. A(N  32,C  33,C  34)          119.5211         0.411705   
    233. A(Ni  3,C  33,C  34)          115.6811         0.299247   
    234. A(Ni  3,C  33,N  32)           37.3369         0.287482   
    235. A(C  35,C  34,C  36)          121.0844         0.406122   
    236. A(C  33,C  34,C  36)          118.9362         0.434078   
    237. A(C  33,C  34,C  35)          119.9486         0.403140   
    238. A(H  68,C  35,H  70)          109.0790         0.291412   
    239. A(C  34,C  35,H  70)          110.8560         0.330974   
    240. A(H  68,C  35,H  69)          107.7155         0.290627   
    241. A(H  69,C  35,H  70)          108.3832         0.291030   
    242. A(C  34,C  35,H  69)          109.1692         0.330035   
    243. A(C  34,C  35,H  68)          111.5353         0.330491   
    244. A(C  34,C  36,C  37)          120.7707         0.438426   
    245. A(C  37,C  36,H  71)          119.9353         0.357074   
    246. A(C  34,C  36,H  71)          119.2918         0.356251   
    247. A(C  36,C  37,C  38)          119.9344         0.439416   
    248. A(C  38,C  37,H  72)          120.0407         0.357180   
    249. A(C  36,C  37,H  72)          120.0148         0.357246   
    250. A(C  37,C  38,C  39)          120.7898         0.438517   
    251. A(C  39,C  38,H  73)          119.2892         0.356381   
    252. A(C  37,C  38,H  73)          119.9189         0.357003   
    253. A(C  38,C  39,C  40)          121.1957         0.406393   
    254. A(C  33,C  39,C  40)          119.8876         0.402675   
    255. A(C  33,C  39,C  38)          118.8886         0.433621   
    256. A(H  75,C  40,H  76)          109.0008         0.290775   
    257. A(H  74,C  40,H  76)          107.6471         0.290098   
    258. A(C  39,C  40,H  76)          109.2942         0.329755   
    259. A(H  74,C  40,H  75)          108.5417         0.291236   
    260. A(C  39,C  40,H  75)          110.6873         0.331118   
    261. A(C  39,C  40,H  74)          111.5879         0.330305   
    262. D(Ni  3,O   2,C   1,O   0)    168.8050         0.080431   
    263. D(Ni  3,O   2,C   1,C   5)     -9.4550         0.080431   
    264. D(C   5,Ni  3,O   2,C   1)      6.2936         0.010000   
    265. D(O   2,Ni  3,C   1,C   5)    170.7565         0.010000   
    266. D(C   5,Ni  3,C   1,O   2)   -170.7565         0.010000   
    267. D(N  23,Ni  3,C   1,C   5)    -10.9220         0.010000   
    268. D(N  32,Ni  3,O   2,C   1)   -154.7290         0.010000   
    269. D(N   4,Ni  3,O   2,C   1)     26.3975         0.010000   
    270. D(C   5,Ni  3,C   1,O   0)    143.3730         0.010000   
    271. D(C  24,Ni  3,O   2,C   1)      3.8975         0.010000   
    272. D(N   4,Ni  3,C   1,O   2)   -150.3414         0.010000   
    273. D(C  33,Ni  3,O   2,C   1)   -152.9108         0.010000   
    274. D(N  23,Ni  3,C   1,O   0)    132.4511         0.010000   
    275. D(N  23,Ni  3,C   1,O   2)    178.3215         0.010000   
    276. D(N   4,Ni  3,C   1,O   0)    163.7882         0.010000   
    277. D(O   2,Ni  3,C   1,O   0)    -45.8704         0.010000   
    278. D(N   4,Ni  3,C   1,C   5)     20.4151         0.010000   
    279. D(C   5,N   4,Ni  3,C   1)    -24.5913         0.010000   
    280. D(C  12,N   4,Ni  3,C  24)    -85.0436         0.010000   
    281. D(C  12,N   4,Ni  3,N  23)    -74.4268         0.010000   
    282. D(C   5,N   4,Ni  3,N  23)    141.3041         0.010000   
    283. D(C  12,N   4,Ni  3,C   1)    119.6778         0.010000   
    284. D(C   5,N   4,Ni  3,O   2)    -36.9320         0.010000   
    285. D(C   5,N   4,Ni  3,C  24)    130.6873         0.010000   
    286. D(C  12,N   4,Ni  3,C   5)    144.2691         0.010000   
    287. D(C   5,N   4,Ni  3,C  33)    -35.7121         0.010000   
    288. D(C  12,N   4,Ni  3,O   2)    107.3371         0.010000   
    289. D(N   4,C   5,C   1,O   2)    -18.8673         0.010000   
    290. D(Ni  3,C   5,C   1,O   2)      6.2252         0.010000   
    291. D(N   4,C   5,C   1,O   0)    162.5704         0.010000   
    292. D(Ni  3,C   5,N   4,C  12)   -145.2381         0.024819   
    293. D(H  41,C   5,N   4,C  12)    143.7863         0.024819   
    294. D(Ni  3,C   5,C   1,O   0)   -172.3371         0.010000   
    295. D(C   6,C   5,N   4,C  12)     12.6087         0.024819   
    296. D(H  41,C   5,N   4,Ni  3)    -70.9756         0.024819   
    297. D(C   6,C   5,N   4,Ni  3)    157.8468         0.024819   
    298. D(C   6,C   5,C   1,O   0)     34.1145         0.010000   
    299. D(N   4,C   5,Ni  3,N  32)    175.1482         0.010000   
    300. D(C   1,C   5,N   4,Ni  3)     36.6528         0.024819   
    301. D(N   4,C   5,Ni  3,N  23)    -43.6317         0.010000   
    302. D(N   4,C   5,Ni  3,C  24)    -43.7036         0.010000   
    303. D(N   4,C   5,Ni  3,C   1)    141.9917         0.010000   
    304. D(N   4,C   5,Ni  3,O   2)    137.5194         0.010000   
    305. D(C   1,C   5,Ni  3,N  32)     33.1565         0.010000   
    306. D(C   1,C   5,N   4,C  12)   -108.5853         0.024819   
    307. D(C   1,C   5,Ni  3,N  23)    174.3766         0.010000   
    308. D(C   1,C   5,Ni  3,C  24)    174.3047         0.010000   
    309. D(C   1,C   5,Ni  3,C  33)     17.5487         0.010000   
    310. D(C   6,C   5,C   1,O   2)   -147.3232         0.010000   
    311. D(C   1,C   5,Ni  3,N   4)   -141.9917         0.010000   
    312. D(N   4,C   5,C   1,Ni  3)    -25.0925         0.010000   
    313. D(C   1,C   5,Ni  3,O   2)     -4.4723         0.010000   
    314. D(C   7,C   6,C   5,Ni  3)    -27.0727         0.014509   
    315. D(C  11,C   6,C   5,C   1)   -122.3704         0.014509   
    316. D(C   7,C   6,C   5,H  41)    165.0862         0.014509   
    317. D(C   7,C   6,C   5,N   4)    -63.6625         0.014509   
    318. D(C   7,C   6,C   5,C   1)     55.3168         0.014509   
    319. D(C  11,C   6,C   5,Ni  3)    155.2402         0.014509   
    320. D(C   8,C   7,C   6,C  11)     -1.1114         0.026660   
    321. D(H  42,C   7,C   6,C  11)    178.3272         0.026660   
    322. D(H  42,C   7,C   6,C   5)      0.6144         0.026660   
    323. D(C   8,C   7,C   6,C   5)   -178.8242         0.026660   
    324. D(C   9,C   8,C   7,C   6)      0.2929         0.028933   
    325. D(H  43,C   8,C   7,H  42)      0.4859         0.028933   
    326. D(H  43,C   8,C   7,C   6)    179.9236         0.028933   
    327. D(C   9,C   8,C   7,H  42)   -179.1448         0.028933   
    328. D(H  44,C   9,C   8,H  43)      0.3225         0.028086   
    329. D(C  10,C   9,C   8,H  43)   -179.1515         0.028086   
    330. D(H  44,C   9,C   8,C   7)    179.9519         0.028086   
    331. D(C  10,C   9,C   8,C   7)      0.4779         0.028086   
    332. D(H  45,C  10,C   9,H  44)     -0.0822         0.028347   
    333. D(H  45,C  10,C   9,C   8)    179.3920         0.028347   
    334. D(C  11,C  10,C   9,H  44)   -179.8907         0.028347   
    335. D(C  11,C  10,C   9,C   8)     -0.4165         0.028347   
    336. D(H  46,C  11,C  10,H  45)      0.1732         0.028509   
    337. D(H  46,C  11,C  10,C   9)    179.9823         0.028509   
    338. D(C   6,C  11,C  10,H  45)    179.7742         0.028509   
    339. D(H  46,C  11,C   6,C   5)     -1.5005         0.027122   
    340. D(C  10,C  11,C   6,C   7)      1.1735         0.027122   
    341. D(C  10,C  11,C   6,C   5)    178.8973         0.027122   
    342. D(C   6,C  11,C  10,C   9)     -0.4166         0.028509   
    343. D(H  46,C  11,C   6,C   7)   -179.2243         0.027122   
    344. D(C  17,C  12,N   4,C   5)    125.9973         0.028113   
    345. D(C  17,C  12,N   4,Ni  3)    -14.1137         0.028113   
    346. D(C  13,C  12,N   4,C   5)    -56.3121         0.028113   
    347. D(C  13,C  12,N   4,Ni  3)    163.5770         0.028113   
    348. D(H  47,C  13,C  12,C  17)    175.9128         0.024682   
    349. D(H  47,C  13,C  12,N   4)     -1.7862         0.024682   
    350. D(C  14,C  13,C  12,C  17)     -2.1624         0.024682   
    351. D(C  14,C  13,C  12,N   4)   -179.8615         0.024682   
    352. D(H  48,C  14,C  13,H  47)      1.6225         0.029521   
    353. D(H  48,C  14,C  13,C  12)    179.6817         0.029521   
    354. D(C  15,C  14,C  13,H  47)   -178.4719         0.029521   
    355. D(C  15,C  14,C  13,C  12)     -0.4126         0.029521   
    356. D(H  49,C  15,C  14,H  48)      1.0256         0.027620   
    357. D(H  49,C  15,C  14,C  13)   -178.8796         0.027620   
    358. D(C  16,C  15,C  14,H  48)   -178.2209         0.027620   
    359. D(C  16,C  15,C  14,C  13)      1.8739         0.027620   
    360. D(H  50,C  16,C  15,H  49)     -0.0959         0.027644   
    361. D(H  50,C  16,C  15,C  14)    179.1509         0.027644   
    362. D(C  17,C  16,C  15,H  49)   -179.9428         0.027644   
    363. D(C  17,C  16,C  15,C  14)     -0.6960         0.027644   
    364. D(H  51,C  17,C  16,H  50)     -0.1407         0.029656   
    365. D(H  51,C  17,C  16,C  15)    179.7065         0.029656   
    366. D(C  12,C  17,C  16,H  50)    178.2164         0.029656   
    367. D(C  12,C  17,C  16,C  15)     -1.9364         0.029656   
    368. D(C  16,C  17,C  12,C  13)      3.3470         0.024572   
    369. D(C  16,C  17,C  12,N   4)   -178.8680         0.024572   
    370. D(H  51,C  17,C  12,N   4)     -0.4637         0.024572   
    371. D(H  51,C  17,C  12,C  13)   -178.2488         0.024572   
    372. D(N  32,C  19,C  18,H  53)    -58.0433         0.012294   
    373. D(N  32,C  19,C  18,H  52)   -179.0334         0.012294   
    374. D(C  20,C  19,C  18,H  54)   -114.9078         0.012294   
    375. D(C  20,C  19,C  18,H  53)    126.3941         0.012294   
    376. D(C  20,C  19,C  18,H  52)      5.4040         0.012294   
    377. D(H  55,C  20,C  19,N  32)   -176.1596         0.026993   
    378. D(H  55,C  20,C  19,C  18)     -0.7157         0.026993   
    379. D(C  21,C  20,C  19,N  32)     -1.7508         0.026993   
    380. D(C  21,C  20,C  19,C  18)    173.6931         0.026993   
    381. D(N  23,C  21,C  20,H  55)   -174.7425         0.027214   
    382. D(N  23,C  21,C  20,C  19)     10.8408         0.027214   
    383. D(C  22,C  21,C  20,H  55)      7.2689         0.027214   
    384. D(C  22,C  21,C  20,C  19)   -167.1479         0.027214   
    385. D(H  57,C  22,C  21,N  23)     82.1999         0.012258   
    386. D(H  57,C  22,C  21,C  20)    -99.7680         0.012258   
    387. D(H  56,C  22,C  21,N  23)   -158.5724         0.012258   
    388. D(H  56,C  22,C  21,C  20)     19.4597         0.012258   
    389. D(H  58,C  22,C  21,C  20)    140.4489         0.012258   
    390. D(C  24,N  23,C  21,C  22)      7.3144         0.042279   
    391. D(Ni  3,N  23,C  21,C  22)    172.7532         0.042279   
    392. D(Ni  3,N  23,C  21,C  20)     -5.1506         0.042279   
    393. D(C  24,N  23,Ni  3,N  32)    160.3604         0.010000   
    394. D(C  24,N  23,Ni  3,C   5)     -0.1513         0.010000   
    395. D(C  24,N  23,Ni  3,N   4)    -20.6795         0.010000   
    396. D(C  24,N  23,Ni  3,C   1)      7.1326         0.010000   
    397. D(C  21,N  23,Ni  3,C  33)     -8.1458         0.010000   
    398. D(C  21,N  23,Ni  3,N  32)     -5.3872         0.010000   
    399. D(C  21,N  23,Ni  3,C  24)   -165.7476         0.010000   
    400. D(C  21,N  23,Ni  3,C   5)   -165.8989         0.010000   
    401. D(C  21,N  23,Ni  3,N   4)    173.5729         0.010000   
    402. D(C  21,N  23,Ni  3,C   1)   -158.6149         0.010000   
    403. D(C  24,N  23,C  21,C  20)   -170.5894         0.042279   
    404. D(C  24,N  23,O   2,C   1)      5.6062         0.010000   
    405. D(C  21,N  23,O   2,C   1)   -159.2908         0.010000   
    406. D(C  30,C  24,N  23,Ni  3)    112.3861         0.020142   
    407. D(C  25,C  24,N  23,C  21)     99.5378         0.020142   
    408. D(C  25,C  24,N  23,Ni  3)    -68.2137         0.020142   
    409. D(C  25,C  24,Ni  3,C   5)    -56.3788         0.010000   
    410. D(C  25,C  24,Ni  3,N   4)    -79.0703         0.010000   
    411. D(C  25,C  24,Ni  3,O   2)    -54.2480         0.010000   
    412. D(C  25,C  24,Ni  3,C   1)    -52.2261         0.010000   
    413. D(N  23,C  24,Ni  3,C  33)    -34.4250         0.010000   
    414. D(N  23,C  24,Ni  3,N  32)    -22.2645         0.010000   
    415. D(Ni  3,C  24,N  23,C  21)    167.7516         0.020142   
    416. D(N  23,C  24,Ni  3,C   5)    179.8628         0.010000   
    417. D(N  23,C  24,Ni  3,N   4)    157.1713         0.010000   
    418. D(N  23,C  24,Ni  3,O   2)   -178.0064         0.010000   
    419. D(C  30,C  24,N  23,C  21)    -79.8623         0.020142   
    420. D(N  23,C  24,Ni  3,C   1)   -175.9845         0.010000   
    421. D(C  27,C  25,C  24,N  23)    178.1704         0.026028   
    422. D(C  27,C  25,C  24,Ni  3)    142.4786         0.026028   
    423. D(C  26,C  25,C  24,C  30)    177.3484         0.026028   
    424. D(C  26,C  25,C  24,N  23)     -2.0644         0.026028   
    425. D(C  26,C  25,C  24,Ni  3)    -37.7563         0.026028   
    426. D(H  61,C  26,C  25,C  24)    -76.0351         0.012888   
    427. D(H  60,C  26,C  25,C  27)    -16.7793         0.012888   
    428. D(H  60,C  26,C  25,C  24)    163.4587         0.012888   
    429. D(H  59,C  26,C  25,C  27)   -138.2189         0.012888   
    430. D(H  59,C  26,C  25,C  24)     42.0192         0.012888   
    431. D(H  62,C  27,C  25,C  26)      0.8793         0.028291   
    432. D(H  62,C  27,C  25,C  24)   -179.3588         0.028291   
    433. D(C  28,C  27,C  25,C  26)   -178.8644         0.028291   
    434. D(C  28,C  27,C  25,C  24)      0.8975         0.028291   
    435. D(H  63,C  28,C  27,H  62)      0.5855         0.028302   
    436. D(H  63,C  28,C  27,C  25)   -179.6723         0.028302   
    437. D(C  29,C  28,C  27,H  62)   -179.0752         0.028302   
    438. D(C  29,C  28,C  27,C  25)      0.6670         0.028302   
    439. D(H  64,C  29,C  28,H  63)     -0.2662         0.029138   
    440. D(H  64,C  29,C  28,C  27)    179.3941         0.029138   
    441. D(C  30,C  29,C  28,H  63)    179.6123         0.029138   
    442. D(C  30,C  29,C  28,C  27)     -0.7274         0.029138   
    443. D(C  31,C  30,C  29,H  64)     -1.2538         0.027123   
    444. D(C  31,C  30,C  29,C  28)    178.8662         0.027123   
    445. D(C  24,C  30,C  29,H  64)    179.0970         0.027123   
    446. D(C  24,C  30,C  29,C  28)     -0.7830         0.027123   
    447. D(C  31,C  30,C  24,N  23)      2.0991         0.027488   
    448. D(C  31,C  30,C  24,Ni  3)     48.7807         0.027488   
    449. D(C  29,C  30,C  24,C  25)      2.3458         0.027488   
    450. D(C  29,C  30,C  24,N  23)   -178.2657         0.027488   
    451. D(C  29,C  30,C  24,Ni  3)   -131.5840         0.027488   
    452. D(H  67,C  31,C  30,C  24)   -129.9234         0.012902   
    453. D(H  66,C  31,C  30,C  29)    -67.7955         0.012902   
    454. D(H  66,C  31,C  30,C  24)    111.8402         0.012902   
    455. D(H  65,C  31,C  30,C  29)    171.1759         0.012902   
    456. D(H  65,C  31,C  30,C  24)     -9.1884         0.012902   
    457. D(C  33,N  32,C  19,C  20)    176.1854         0.043219   
    458. D(C  33,N  32,C  19,C  18)      0.8516         0.043219   
    459. D(Ni  3,N  32,C  19,C  20)    -13.1123         0.043219   
    460. D(Ni  3,N  32,C  19,C  18)    171.5539         0.043219   
    461. D(C  33,N  32,N   4,C  12)    109.5609         0.010000   
    462. D(C  33,N  32,N   4,C   5)    -33.3697         0.010000   
    463. D(C  19,N  32,N   4,C  12)    -60.1487         0.010000   
    464. D(C  19,N  32,N   4,C   5)    156.9206         0.010000   
    465. D(C  33,N  32,Ni  3,N  23)   -174.7743         0.010000   
    466. D(C  33,N  32,Ni  3,C   5)    -29.3338         0.010000   
    467. D(C  33,N  32,Ni  3,O   2)      3.4979         0.010000   
    468. D(C  33,N  32,Ni  3,C   1)     -8.1017         0.010000   
    469. D(C  19,N  32,Ni  3,C  33)   -170.7198         0.010000   
    470. D(C  19,N  32,Ni  3,C  24)     24.8670         0.010000   
    471. D(C  19,N  32,Ni  3,N  23)     14.5060         0.010000   
    472. D(C  19,N  32,Ni  3,C   5)    159.9464         0.010000   
    473. D(C  19,N  32,Ni  3,O   2)   -167.2218         0.010000   
    474. D(C  19,N  32,Ni  3,C   1)   -178.8215         0.010000   
    475. D(C  39,C  33,N  32,C  19)     86.6374         0.020419   
    476. D(C  39,C  33,N  32,Ni  3)    -85.4218         0.020419   
    477. D(C  34,C  33,N  32,C  19)    -93.4210         0.020419   
    478. D(C  34,C  33,N  32,Ni  3)     94.5199         0.020419   
    479. D(Ni  3,C  33,N  32,C  19)    172.0592         0.020419   
    480. D(C  34,C  33,Ni  3,C   5)     56.2953         0.010000   
    481. D(C  34,C  33,Ni  3,N   4)     76.8240         0.010000   
    482. D(C  34,C  33,Ni  3,O   2)     78.1876         0.010000   
    483. D(C  34,C  33,Ni  3,C   1)     66.8444         0.010000   
    484. D(N  32,C  33,Ni  3,C  24)     23.7274         0.010000   
    485. D(N  32,C  33,Ni  3,N  23)      5.9485         0.010000   
    486. D(N  32,C  33,Ni  3,C   5)    162.0254         0.010000   
    487. D(N  32,C  33,Ni  3,N   4)   -177.4458         0.010000   
    488. D(N  32,C  33,Ni  3,O   2)   -176.0822         0.010000   
    489. D(N  32,C  33,Ni  3,C   1)    172.5746         0.010000   
    490. D(C  36,C  34,C  33,N  32)    178.2311         0.027654   
    491. D(C  36,C  34,C  33,Ni  3)   -139.6336         0.027654   
    492. D(C  35,C  34,C  33,C  39)    176.1751         0.027654   
    493. D(C  35,C  34,C  33,N  32)     -3.7661         0.027654   
    494. D(C  35,C  34,C  33,Ni  3)     38.3693         0.027654   
    495. D(H  70,C  35,C  34,C  33)    172.5571         0.012928   
    496. D(H  69,C  35,C  34,C  36)    109.8394         0.012928   
    497. D(H  69,C  35,C  34,C  33)    -68.1197         0.012928   
    498. D(H  68,C  35,C  34,C  36)   -131.2454         0.012928   
    499. D(H  68,C  35,C  34,C  33)     50.7955         0.012928   
    500. D(H  71,C  36,C  34,C  35)      1.9791         0.027811   
    501. D(H  71,C  36,C  34,C  33)    179.9584         0.027811   
    502. D(C  37,C  36,C  34,C  35)   -177.4871         0.027811   
    503. D(C  37,C  36,C  34,C  33)      0.4923         0.027811   
    504. D(H  72,C  37,C  36,H  71)      0.4005         0.028628   
    505. D(H  72,C  37,C  36,C  34)    179.8632         0.028628   
    506. D(C  38,C  37,C  36,H  71)   -178.4464         0.028628   
    507. D(C  38,C  37,C  36,C  34)      1.0163         0.028628   
    508. D(H  73,C  38,C  37,H  72)     -0.5932         0.028562   
    509. D(H  73,C  38,C  37,C  36)    178.2534         0.028562   
    510. D(C  39,C  38,C  37,H  72)    179.9420         0.028562   
    511. D(C  39,C  38,C  37,C  36)     -1.2114         0.028562   
    512. D(C  40,C  39,C  33,N  32)      3.4842         0.027184   
    513. D(C  40,C  39,C  33,Ni  3)    -36.7788         0.027184   
    514. D(C  38,C  39,C  33,C  34)      1.6386         0.027184   
    515. D(C  38,C  39,C  33,N  32)   -178.4205         0.027184   
    516. D(C  38,C  39,C  33,Ni  3)    141.3166         0.027184   
    517. D(C  40,C  39,C  38,H  73)     -1.5075         0.027943   
    518. D(C  40,C  39,C  38,C  37)    177.9607         0.027943   
    519. D(C  33,C  39,C  38,H  73)   -179.5770         0.027943   
    520. D(C  33,C  39,C  38,C  37)     -0.1089         0.027943   
    521. D(H  76,C  40,C  39,C  33)     42.2908         0.012967   
    522. D(H  75,C  40,C  39,C  38)    -15.6984         0.012967   
    523. D(H  75,C  40,C  39,C  33)    162.3521         0.012967   
    524. D(H  74,C  40,C  39,C  38)    105.2969         0.012967   
    525. D(H  74,C  40,C  39,C  33)    -76.6526         0.012967   
    -----------------------------------------------------------------

Number of atoms                         .... 77
Number of degrees of freedom            .... 525


         *************************************************************
         *                GEOMETRY OPTIMIZATION CYCLE   1            *
         *************************************************************
---------------------------------
CARTESIAN COORDINATES (ANGSTROEM)
---------------------------------
  O      4.699447    5.979872   -2.951360
  C      4.806566    5.145856   -2.095417
  O      3.980908    4.632637   -1.315730
  Ni     4.570178    3.170906   -0.404058
  N      6.274431    3.875978   -0.610950
  C      6.334995    4.474948   -1.886929
  C      7.354961    5.529676   -2.161656
  C      7.328165    6.739559   -1.474207
  C      8.260539    7.720552   -1.750706
  C      9.227217    7.509748   -2.720084
  C      9.250708    6.315593   -3.419213
  C      8.317149    5.332527   -3.144671
  C      6.964913    4.434936    0.438551
  C      8.347318    4.662955    0.395967
  C      8.989357    5.224236    1.479388
  C      8.281608    5.578244    2.618817
  C      6.918508    5.329532    2.684607
  C      6.271018    4.746932    1.616528
  C      0.871641    1.387399    0.705729
  C      2.357810    1.593252    0.570274
  C      3.191844    0.685911    1.213563
  C      4.573398    0.683100    1.068328
  C      5.299462   -0.532189    1.584629
  N      5.233796    1.665250    0.475056
  C      6.618342    1.423042    0.218032
  C      6.989376    1.028862   -1.079086
  C      5.930935    0.832374   -2.123357
  C      8.325947    0.822554   -1.374127
  C      9.295608    0.982991   -0.399491
  C      8.923467    1.338665    0.881387
  C      7.591640    1.555161    1.213584
  C      7.251891    1.914164    2.629439
  N      2.822317    2.552937   -0.209974
  C      1.827567    3.343528   -0.859575
  C      1.404185    2.997149   -2.145847
  C      2.054610    1.853811   -2.865443
  C      0.410748    3.751510   -2.750920
  C     -0.148494    4.836330   -2.101098
  C      0.297945    5.191423   -0.841228
  C      1.286402    4.456883   -0.205767
  C      1.808975    4.859712    1.140149
  H      6.335735    3.714422   -2.679559
  H      6.567684    6.914454   -0.726761
  H      8.229429    8.655994   -1.211908
  H      9.955120    8.277991   -2.935754
  H      9.996260    6.149372   -4.183270
  H      8.338182    4.400761   -3.693015
  H      8.908143    4.367683   -0.476991
  H     10.055853    5.389813    1.435389
  H      8.790874    6.033705    3.454771
  H      6.363113    5.589887    3.574037
  H      5.200929    4.539811    1.652587
  H      0.661934    0.573510    1.393932
  H      0.382655    2.289033    1.066904
  H      0.434682    1.149893   -0.263260
  H      2.739275   -0.108215    1.783665
  H      4.607875   -1.364219    1.684064
  H      5.727666   -0.328840    2.563657
  H      6.108667   -0.820020    0.917728
  H      5.180675    1.638398   -2.061218
  H      6.363162    0.817015   -3.120960
  H      5.404380   -0.108748   -1.958297
  H      8.609170    0.529660   -2.375012
  H     10.336370    0.825236   -0.639393
  H      9.674653    1.455850    1.648873
  H      6.210062    2.206015    2.725108
  H      7.445374    1.065084    3.286185
  H      7.878715    2.737341    2.965964
  H      2.083935    0.957053   -2.247407
  H      3.084172    2.122946   -3.109427
  H      1.530096    1.630446   -3.791060
  H      0.079557    3.489240   -3.745482
  H     -0.919982    5.416754   -2.584699
  H     -0.119431    6.056068   -0.345387
  H      1.430230    4.208513    1.929089
  H      1.525966    5.883243    1.371275
  H      2.899857    4.782861    1.142024

----------------------------
CARTESIAN COORDINATES (A.U.)
----------------------------
  NO LB      ZA    FRAG     MASS         X           Y           Z
   0 O     8.0000    0    15.999    8.880668   11.300320   -5.577262
   1 C     6.0000    0    12.011    9.083093    9.724259   -3.959764
   2 O     8.0000    0    15.999    7.522826    8.754415   -2.486369
   3 Ni   28.0000    0    58.700    8.636385    5.992144   -0.763559
   4 N     7.0000    0    14.007   11.856956    7.324537   -1.154528
   5 C     6.0000    0    12.011   11.971406    8.456426   -3.565779
   6 C     6.0000    0    12.011   13.898862   10.449573   -4.084938
   7 C     6.0000    0    12.011   13.848225   12.735921   -2.785847
   8 C     6.0000    0    12.011   15.610156   14.589729   -3.308355
   9 C     6.0000    0    12.011   17.436913   14.191367   -5.140214
  10 C     6.0000    0    12.011   17.481305   11.934741   -6.461376
  11 C     6.0000    0    12.011   15.717134   10.077016   -5.942567
  12 C     6.0000    0    12.011   13.161778    8.380814    0.828741
  13 C     6.0000    0    12.011   15.774145    8.811708    0.748269
  14 C     6.0000    0    12.011   16.987423    9.872375    2.795638
  15 C     6.0000    0    12.011   15.649971   10.541353    4.948847
  16 C     6.0000    0    12.011   13.074085   10.071356    5.073172
  17 C     6.0000    0    12.011   11.850507    8.970401    3.054795
  18 C     6.0000    0    12.011    1.647163    2.621804    1.333635
  19 C     6.0000    0    12.011    4.455615    3.010810    1.077662
  20 C     6.0000    0    12.011    6.031711    1.296184    2.293302
  21 C     6.0000    0    12.011    8.642470    1.290872    2.018847
  22 C     6.0000    0    12.011   10.014532   -1.005691    2.994515
  23 N     7.0000    0    14.007    9.890441    3.146866    0.897726
  24 C     6.0000    0    12.011   12.506854    2.689160    0.412021
  25 C     6.0000    0    12.011   13.208006    1.944267   -2.039177
  26 C     6.0000    0    12.011   11.207843    1.572959   -4.012563
  27 C     6.0000    0    12.011   15.733760    1.554402   -2.596724
  28 C     6.0000    0    12.011   17.566153    1.857584   -0.754929
  29 C     6.0000    0    12.011   16.862909    2.529710    1.665580
  30 C     6.0000    0    12.011   14.346121    2.938828    2.293341
  31 C     6.0000    0    12.011   13.704088    3.617246    4.968920
  32 N     7.0000    0    14.007    5.333406    4.824352   -0.396793
  33 C     6.0000    0    12.011    3.453601    6.318352   -1.624361
  34 C     6.0000    0    12.011    2.653525    5.663791   -4.055063
  35 C     6.0000    0    12.011    3.882650    3.503195   -5.414903
  36 C     6.0000    0    12.011    0.776201    7.089326   -5.198485
  37 C     6.0000    0    12.011   -0.280613    9.139339   -3.970500
  38 C     6.0000    0    12.011    0.563034    9.810368   -1.589691
  39 C     6.0000    0    12.011    2.430947    8.422288   -0.388843
  40 C     6.0000    0    12.011    3.418467    9.183525    2.154569
  41 H     1.0000    0     1.008   11.972804    7.019240   -5.063633
  42 H     1.0000    0     1.008   12.411124   13.066424   -1.373379
  43 H     1.0000    0     1.008   15.551367   16.357458   -2.290174
  44 H     1.0000    0     1.008   18.812450   15.643136   -5.547771
  45 H     1.0000    0     1.008   18.890194   11.620629   -7.905235
  46 H     1.0000    0     1.008   15.756880    8.316233   -6.978787
  47 H     1.0000    0     1.008   16.833951    8.253725   -0.901382
  48 H     1.0000    0     1.008   19.002808   10.185270    2.712492
  49 H     1.0000    0     1.008   16.612344   11.402050    6.528571
  50 H     1.0000    0     1.008   12.024541   10.563356    6.753951
  51 H     1.0000    0     1.008    9.828331    8.578999    3.122937
  52 H     1.0000    0     1.008    1.250874    1.083777    2.634150
  53 H     1.0000    0     1.008    0.723113    4.325645    2.016156
  54 H     1.0000    0     1.008    0.821430    2.172983   -0.497489
  55 H     1.0000    0     1.008    5.176480   -0.204497    3.370638
  56 H     1.0000    0     1.008    8.707622   -2.578000    3.182420
  57 H     1.0000    0     1.008   10.823720   -0.621418    4.844610
  58 H     1.0000    0     1.008   11.543708   -1.549613    1.734255
  59 H     1.0000    0     1.008    9.790057    3.096124   -3.895138
  60 H     1.0000    0     1.008   12.024634    1.543935   -5.897760
  61 H     1.0000    0     1.008   10.212798   -0.205504   -3.700645
  62 H     1.0000    0     1.008   16.268974    1.000912   -4.488122
  63 H     1.0000    0     1.008   19.532909    1.559470   -1.208278
  64 H     1.0000    0     1.008   18.282445    2.751158    3.115918
  65 H     1.0000    0     1.008   11.735316    4.168764    5.149708
  66 H     1.0000    0     1.008   14.069718    2.012717    6.209990
  67 H     1.0000    0     1.008   14.888614    5.172825    5.604860
  68 H     1.0000    0     1.008    3.938066    1.808568   -4.246984
  69 H     1.0000    0     1.008    5.828240    4.011787   -5.875965
  70 H     1.0000    0     1.008    2.891462    3.081096   -7.164065
  71 H     1.0000    0     1.008    0.150341    6.593708   -7.077935
  72 H     1.0000    0     1.008   -1.738514   10.236182   -4.884373
  73 H     1.0000    0     1.008   -0.225692   11.444310   -0.652687
  74 H     1.0000    0     1.008    2.702743    7.952937    3.645450
  75 H     1.0000    0     1.008    2.883658   11.117718    2.591334
  76 H     1.0000    0     1.008    5.479936    9.038297    2.158113

--------------------------------
INTERNAL COORDINATES (ANGSTROEM)
--------------------------------
 O      0   0   0     0.000000000000     0.00000000     0.00000000
 C      1   0   0     1.199873154823     0.00000000     0.00000000
 O      2   1   0     1.246200903905   132.33174730     0.00000000
 Ni     3   2   1     1.820725812649   115.43416006   168.80504597
 N      4   3   2     1.855911935642    86.35239086    26.39747858
 C      5   4   3     1.410870464443   107.54909872   323.06797509
 C      6   5   4     1.492734644761   119.71898835   157.84678686
 C      7   6   5     1.391804952896   120.67447376   296.33752275
 C      8   7   6     1.381347255011   120.36340276   181.17581188
 C      9   8   7     1.385134790908   120.20297771     0.29289902
 C     10   9   8     1.383957856926   119.78201831     0.47790567
 C     11  10   9     1.383229726618   120.10016588   359.58346486
 C      5   4   3     1.375009740725   122.03783871   107.33706257
 C     13   5   4     1.401730946167   122.55990403   163.57695059
 C     14  13   5     1.378786242216   120.10482489   180.13854400
 C     15  14  13     1.387273858006   120.77784825   359.58738779
 C     16  15  14     1.387165308478   119.63831479     1.87393641
 C     17  16  15     1.378208551106   120.04578600   359.30396426
 C      4   3   2     4.253433947387   100.71104927   200.30375596
 C     19   4   3     1.506460026418    20.18437573   179.25351177
 C     20  19   4     1.390216220938   117.45551491   176.12465110
 C     21  20  19     1.389169738319   123.33859897   173.69309693
 C     22  21  20     1.506871928273   116.42361178   192.85214639
 N     22  21  20     1.323901736115   122.78183509    10.84080727
 C     24  22  21     1.428878468575   115.98947291   189.41062292
 C     25  24  22     1.405545875267   117.99070925    99.53782306
 C     26  25  24     1.499802255654   119.53834801   357.93556367
 C     26  25  24     1.384208878958   119.56412978   178.17041675
 C     28  26  25     1.384159607266   120.60200471     0.89749235
 C     29  28  26     1.380449698121   119.62748137     0.66698901
 C     30  29  28     1.389600130525   121.35432783   359.27261519
 C     31  30  29     1.499652599116   118.69392747   178.86619834
 N     20  19   4     1.321192262231   119.94738641   351.68730226
 C     33  20  19     1.427075033410   115.22412811     0.85158787
 C     34  33  20     1.397757628328   119.52108941   266.57903085
 C     35  34  33     1.499364153928   119.94863188   356.23392458
 C     35  34  33     1.386394938904   118.93617943   178.23108550
 C     37  35  34     1.382698332482   120.77074411     0.49230230
 C     38  37  35     1.382993577812   119.93443643     1.01633512
 C     39  38  37     1.385787478284   120.78976206   358.78858710
 C     40  39  38     1.498947504960   121.19569833   177.96067210
 H      6   5   4     1.098481980360   111.01930566   289.02440121
 H      8   7   6     1.080553161719   119.72989533     0.61444191
 H      9   8   7     1.079964282867   119.72435359   179.92356348
 H     10   9   8     1.080071124213   120.12137017   179.95190429
 H     11  10   9     1.080398215842   120.11373648   179.39198245
 H     12  11  10     1.081347034111   119.90860598   179.98231377
 H     14  13   5     1.078779822009   119.52224628   358.21377711
 H     15  14  13     1.080169140897   119.35072618   179.68172984
 H     16  15  14     1.079636823841   120.19625833   181.12044673
 H     17  16  15     1.080432347234   120.06411596   179.15086836
 H     18  17  16     1.090545656102   121.04114077   179.70650868
 H     19   4   3     1.086285275321   130.34048942   190.68454136
 H     19   4   3     1.087427495871    97.46959793   313.37262873
 H     19   4   3     1.089165712754   102.01441351    62.82427224
 H     21  20  19     1.077251639145   118.29239482   359.28428293
 H     23  22  21     1.086486916025   110.01507063    19.45970276
 H     23  22  21     1.087752410340   110.32181877   260.23196890
 H     23  22  21     1.087389700331   111.21756627   140.44888202
 H     27  26  25     1.102917046517   110.18761244    42.01915678
 H     27  26  25     1.087321398676   111.10858720   163.45871662
 H     27  26  25     1.090970022736   110.38251380   283.96488858
 H     28  26  25     1.080635436301   119.39867867   180.64121678
 H     29  28  26     1.079641213678   120.12676804   180.32768635
 H     30  29  28     1.080299722770   119.97954018   179.39412377
 H     32  31  30     1.086157092231   111.39458229   171.17589469
 H     32  31  30     1.090728117454   109.99449452   292.20454021
 H     32  31  30     1.088015521916   110.03644748    50.44093001
 H     36  35  34     1.089496839594   111.53528832    50.79553629
 H     36  35  34     1.091769092952   109.16920875   291.88033774
 H     36  35  34     1.087094149607   110.85597701   172.55707261
 H     37  35  34     1.080567722646   119.29179995   179.95841676
 H     38  37  35     1.079794277222   120.01482858   179.86318720
 H     39  38  37     1.080588727816   119.91893134   178.25337838
 H     41  40  39     1.090841068271   111.58785730   105.29693837
 H     41  40  39     1.086797603014   110.68729944   344.30158217
 H     41  40  39     1.093587275781   109.29415535   224.24030247

---------------------------
INTERNAL COORDINATES (A.U.)
---------------------------
 O      0   0   0     0.000000000000     0.00000000     0.00000000
 C      1   0   0     2.267431658060     0.00000000     0.00000000
 O      2   1   0     2.354978416226   132.33174730     0.00000000
 Ni     3   2   1     3.440673150867   115.43416006   168.80504597
 N      4   3   2     3.507165287038    86.35239086    26.39747858
 C      5   4   3     2.666158788235   107.54909872   323.06797509
 C      6   5   4     2.820859669214   119.71898835   157.84678686
 C      7   6   5     2.630130192809   120.67447376   296.33752275
 C      8   7   6     2.610368007814   120.36340276   181.17581188
 C      9   8   7     2.617525413383   120.20297771     0.29289902
 C     10   9   8     2.615301330479   119.78201831     0.47790567
 C     11  10   9     2.613925363608   120.10016588   359.58346486
 C      5   4   3     2.598391841445   122.03783871   107.33706257
 C     13   5   4     2.648887601698   122.55990403   163.57695059
 C     14  13   5     2.605528395006   120.10482489   180.13854400
 C     15  14  13     2.621567664379   120.77784825   359.58738779
 C     16  15  14     2.621362535499   119.63831479     1.87393641
 C     17  16  15     2.604436717018   120.04578600   359.30396426
 C      4   3   2     8.037825289286   100.71104927   200.30375596
 C     19   4   3     2.846796881630    20.18437573   179.25351177
 C     20  19   4     2.627127924507   117.45551491   176.12465110
 C     21  20  19     2.625150358954   123.33859897   173.69309693
 C     22  21  20     2.847575263330   116.42361178   192.85214639
 N     22  21  20     2.501811709480   122.78183509    10.84080727
 C     24  22  21     2.700188984263   115.98947291   189.41062292
 C     25  24  22     2.656096772917   117.99070925    99.53782306
 C     26  25  24     2.834215518224   119.53834801   357.93556367
 C     26  25  24     2.615775693373   119.56412978   178.17041675
 C     28  26  25     2.615682583368   120.60200471     0.89749235
 C     29  28  26     2.608671871102   119.62748137     0.66698901
 C     30  29  28     2.625963682353   121.35432783   359.27261519
 C     31  30  29     2.833932708352   118.69392747   178.86619834
 N     20  19   4     2.496691545872   119.94738641   351.68730226
 C     33  20  19     2.696780985701   115.22412811     0.85158787
 C     34  33  20     2.641379119139   119.52108941   266.57903085
 C     35  34  33     2.833387625943   119.94863188   356.23392458
 C     35  34  33     2.619906747983   118.93617943   178.23108550
 C     37  35  34     2.612921174220   120.77074411     0.49230230
 C     38  37  35     2.613479107037   119.93443643     1.01633512
 C     39  38  37     2.618758813775   120.78976206   358.78858710
 C     40  39  38     2.832600273499   121.19569833   177.96067210
 H      6   5   4     2.075830105928   111.01930566   289.02440121
 H      8   7   6     2.041949548793   119.72989533     0.61444191
 H      9   8   7     2.040836729035   119.72435359   179.92356348
 H     10   9   8     2.041038629918   120.12137017   179.95190429
 H     11  10   9     2.041656743518   120.11373648   179.39198245
 H     12  11  10     2.043449750198   119.90860598   179.98231377
 H     14  13   5     2.038598422397   119.52224628   358.21377711
 H     15  14  13     2.041223854608   119.35072618   179.68172984
 H     16  15  14     2.040217921156   120.19625833   181.12044673
 H     17  16  15     2.041721242502   120.06411596   179.15086836
 H     18  17  16     2.060832626570   121.04114077   179.70650868
 H     19   4   3     2.052781673668   130.34048942   190.68454136
 H     19   4   3     2.054940157693    97.46959793   313.37262873
 H     19   4   3     2.058224911561   102.01441351    62.82427224
 H     21  20  19     2.035710575302   118.29239482   359.28428293
 H     23  22  21     2.053162719376   110.01507063    19.45970276
 H     23  22  21     2.055554157056   110.32181877   260.23196890
 H     23  22  21     2.054868734473   111.21756627   140.44888202
 H     27  26  25     2.084211166350   110.18761244    42.01915678
 H     27  26  25     2.054739663050   111.10858720   163.45871662
 H     27  26  25     2.061634563289   110.38251380   283.96488858
 H     28  26  25     2.042105025220   119.39867867   180.64121678
 H     29  28  26     2.040226216747   120.12676804   180.32768635
 H     30  29  28     2.041470618586   119.97954018   179.39412377
 H     32  31  30     2.052539442732   111.39458229   171.17589469
 H     32  31  30     2.061177428556   109.99449452   292.20454021
 H     32  31  30     2.056051365877   110.03644748    50.44093001
 H     36  35  34     2.058850650605   111.53528832    50.79553629
 H     36  35  34     2.063144587159   109.16920875   291.88033774
 H     36  35  34     2.054310224545   110.85597701   172.55707261
 H     37  35  34     2.041977064956   119.29179995   179.95841676
 H     38  37  35     2.040515464925   120.01482858   179.86318720
 H     39  38  37     2.042016758974   119.91893134   178.25337838
 H     41  40  39     2.061390874666   111.58785730   105.29693837
 H     41  40  39     2.053749832699   110.68729944   344.30158217
 H     41  40  39     2.066580454767   109.29415535   224.24030247

---------------------
BASIS SET INFORMATION
---------------------
There are 5 groups of distinct atoms

 Group   1 Type O   : 11s6p2d contracted to 5s3p2d pattern {62111/411/11}
 Group   2 Type C   : 11s6p1d contracted to 5s3p1d pattern {62111/411/1}
 Group   3 Type Ni  : 17s11p6d contracted to 6s4p3d pattern {842111/6311/411}
 Group   4 Type N   : 11s6p2d contracted to 5s3p2d pattern {62111/411/11}
 Group   5 Type H   : 4s1p contracted to 2s1p pattern {31/1}

Atom   0O    basis set group =>   1
Atom   1C    basis set group =>   2
Atom   2O    basis set group =>   1
Atom   3Ni   basis set group =>   3
Atom   4N    basis set group =>   4
Atom   5C    basis set group =>   2
Atom   6C    basis set group =>   2
Atom   7C    basis set group =>   2
Atom   8C    basis set group =>   2
Atom   9C    basis set group =>   2
Atom  10C    basis set group =>   2
Atom  11C    basis set group =>   2
Atom  12C    basis set group =>   2
Atom  13C    basis set group =>   2
Atom  14C    basis set group =>   2
Atom  15C    basis set group =>   2
Atom  16C    basis set group =>   2
Atom  17C    basis set group =>   2
Atom  18C    basis set group =>   2
Atom  19C    basis set group =>   2
Atom  20C    basis set group =>   2
Atom  21C    basis set group =>   2
Atom  22C    basis set group =>   2
Atom  23N    basis set group =>   4
Atom  24C    basis set group =>   2
Atom  25C    basis set group =>   2
Atom  26C    basis set group =>   2
Atom  27C    basis set group =>   2
Atom  28C    basis set group =>   2
Atom  29C    basis set group =>   2
Atom  30C    basis set group =>   2
Atom  31C    basis set group =>   2
Atom  32N    basis set group =>   4
Atom  33C    basis set group =>   2
Atom  34C    basis set group =>   2
Atom  35C    basis set group =>   2
Atom  36C    basis set group =>   2
Atom  37C    basis set group =>   2
Atom  38C    basis set group =>   2
Atom  39C    basis set group =>   2
Atom  40C    basis set group =>   2
Atom  41H    basis set group =>   5
Atom  42H    basis set group =>   5
Atom  43H    basis set group =>   5
Atom  44H    basis set group =>   5
Atom  45H    basis set group =>   5
Atom  46H    basis set group =>   5
Atom  47H    basis set group =>   5
Atom  48H    basis set group =>   5
Atom  49H    basis set group =>   5
Atom  50H    basis set group =>   5
Atom  51H    basis set group =>   5
Atom  52H    basis set group =>   5
Atom  53H    basis set group =>   5
Atom  54H    basis set group =>   5
Atom  55H    basis set group =>   5
Atom  56H    basis set group =>   5
Atom  57H    basis set group =>   5
Atom  58H    basis set group =>   5
Atom  59H    basis set group =>   5
Atom  60H    basis set group =>   5
Atom  61H    basis set group =>   5
Atom  62H    basis set group =>   5
Atom  63H    basis set group =>   5
Atom  64H    basis set group =>   5
Atom  65H    basis set group =>   5
Atom  66H    basis set group =>   5
Atom  67H    basis set group =>   5
Atom  68H    basis set group =>   5
Atom  69H    basis set group =>   5
Atom  70H    basis set group =>   5
Atom  71H    basis set group =>   5
Atom  72H    basis set group =>   5
Atom  73H    basis set group =>   5
Atom  74H    basis set group =>   5
Atom  75H    basis set group =>   5
Atom  76H    basis set group =>   5
---------------------------------
AUXILIARY/J BASIS SET INFORMATION
---------------------------------
There are 5 groups of distinct atoms

 Group   1 Type O   : 8s3p3d contracted to 6s3p3d pattern {311111/111/111}
 Group   2 Type C   : 8s3p3d contracted to 6s3p3d pattern {311111/111/111}
 Group   3 Type Ni  : 19s5p5d3f3g contracted to 8s5p5d2f3g pattern {121111111/11111/11111/21/111}
 Group   4 Type N   : 8s3p3d contracted to 6s3p3d pattern {311111/111/111}
 Group   5 Type H   : 5s2p1d contracted to 3s1p1d pattern {311/2/1}

Atom   0O    basis set group =>   1
Atom   1C    basis set group =>   2
Atom   2O    basis set group =>   1
Atom   3Ni   basis set group =>   3
Atom   4N    basis set group =>   4
Atom   5C    basis set group =>   2
Atom   6C    basis set group =>   2
Atom   7C    basis set group =>   2
Atom   8C    basis set group =>   2
Atom   9C    basis set group =>   2
Atom  10C    basis set group =>   2
Atom  11C    basis set group =>   2
Atom  12C    basis set group =>   2
Atom  13C    basis set group =>   2
Atom  14C    basis set group =>   2
Atom  15C    basis set group =>   2
Atom  16C    basis set group =>   2
Atom  17C    basis set group =>   2
Atom  18C    basis set group =>   2
Atom  19C    basis set group =>   2
Atom  20C    basis set group =>   2
Atom  21C    basis set group =>   2
Atom  22C    basis set group =>   2
Atom  23N    basis set group =>   4
Atom  24C    basis set group =>   2
Atom  25C    basis set group =>   2
Atom  26C    basis set group =>   2
Atom  27C    basis set group =>   2
Atom  28C    basis set group =>   2
Atom  29C    basis set group =>   2
Atom  30C    basis set group =>   2
Atom  31C    basis set group =>   2
Atom  32N    basis set group =>   4
Atom  33C    basis set group =>   2
Atom  34C    basis set group =>   2
Atom  35C    basis set group =>   2
Atom  36C    basis set group =>   2
Atom  37C    basis set group =>   2
Atom  38C    basis set group =>   2
Atom  39C    basis set group =>   2
Atom  40C    basis set group =>   2
Atom  41H    basis set group =>   5
Atom  42H    basis set group =>   5
Atom  43H    basis set group =>   5
Atom  44H    basis set group =>   5
Atom  45H    basis set group =>   5
Atom  46H    basis set group =>   5
Atom  47H    basis set group =>   5
Atom  48H    basis set group =>   5
Atom  49H    basis set group =>   5
Atom  50H    basis set group =>   5
Atom  51H    basis set group =>   5
Atom  52H    basis set group =>   5
Atom  53H    basis set group =>   5
Atom  54H    basis set group =>   5
Atom  55H    basis set group =>   5
Atom  56H    basis set group =>   5
Atom  57H    basis set group =>   5
Atom  58H    basis set group =>   5
Atom  59H    basis set group =>   5
Atom  60H    basis set group =>   5
Atom  61H    basis set group =>   5
Atom  62H    basis set group =>   5
Atom  63H    basis set group =>   5
Atom  64H    basis set group =>   5
Atom  65H    basis set group =>   5
Atom  66H    basis set group =>   5
Atom  67H    basis set group =>   5
Atom  68H    basis set group =>   5
Atom  69H    basis set group =>   5
Atom  70H    basis set group =>   5
Atom  71H    basis set group =>   5
Atom  72H    basis set group =>   5
Atom  73H    basis set group =>   5
Atom  74H    basis set group =>   5
Atom  75H    basis set group =>   5
Atom  76H    basis set group =>   5
[file orca_main/main_util_tools.cpp, line 749]: Error : multiplicity (1) is odd and number of electrons (311) is odd -> impossible

