
                                 *****************
                                 * O   R   C   A *
                                 *****************

                                            #,                                       
                                            ###                                      
                                            ####                                     
                                            #####                                    
                                            ######                                   
                                           ########,                                 
                                     ,,################,,,,,                         
                               ,,#################################,,                 
                          ,,##########################################,,             
                       ,#########################################, ''#####,          
                    ,#############################################,,   '####,        
                  ,##################################################,,,,####,       
                ,###########''''           ''''###############################       
              ,#####''   ,,,,##########,,,,          '''####'''          '####       
            ,##' ,,,,###########################,,,                        '##       
           ' ,,###''''                  '''############,,,                           
         ,,##''                                '''############,,,,        ,,,,,,###''
      ,#''                                            '''#######################'''  
     '                                                          ''''####''''         
             ,#######,   #######,   ,#######,      ##                                
            ,#'     '#,  ##    ##  ,#'     '#,    #''#        ,####,    ,#,          
            ##       ##  ##   ,#'  ##            #'  '#       #'       ,# #          
            ##       ##  #######   ##           ,######,      #####,      #          
            '#,     ,#'  ##    ##  '#,     ,#' ,#      #,     #,   #      #          
             '#######'   ##     ##  '#######'  #'      '#     '####' #    #          



                #########################################################
                #                        -***-                          #
                #          Department of theory and spectroscopy        #
                #                                                       #
                #                      Frank Neese                      #
                #                                                       #
                #     Directorship, Architecture, Infrastructure        #
                #                    SHARK, DRIVERS                     #
                #        Core code/Algorithms in most modules           #
                #                                                       #
                #        Max Planck Institute fuer Kohlenforschung      #
                #                Kaiser Wilhelm Platz 1                 #
                #                 D-45470 Muelheim/Ruhr                 #
                #                      Germany                          #
                #                                                       #
                #                  All rights reserved                  #
                #                        -***-                          #
                #########################################################


                         Program Version 6.1.0  -  RELEASE   -
                                (GIT: $679e74b$)
                          ($2025-06-10 18:02:51 +0200$)


 With contributions from (in alphabetic order):
[Max-Planck-Institut fuer Kohlenforschung]                               
  Daniel Aravena         : Magnetic Suceptibility                        
  Michael Atanasov       : Ab Initio Ligand Field Theory (pilot matlab implementation)
  Alexander A. Auer      : GIAO ZORA, VPT2 properties, NMR spectrum      
  Ute Becker             : All parallelization in ORCA, NUMFREQ, NUMCALC 
  Giovanni Bistoni       : ED, misc. LED, open-shell LED, HFLD           
  Dmytro Bykov           : pre 5.0 version of the SCF Hessian            
  Marcos Casanova-Páez   : Triplet and SCS-CIS(D). UHF-(DLPNO)-IP/EA/STEOM-CCSD. UHF-CVS-IP/STEOM-CCSD   
  Vijay G. Chilkuri      : MRCI spin determinant printing, contributions to CSF-ICE 
  Pauline Colinet        : FMM embedding                                 
  Dipayan Datta          : RHF DLPNO-CCSD density                        
  Achintya Kumar Dutta   : EOM-CC, STEOM-CC                              
  Nicolas Foglia         : Exact transition moments, OPA infrastructure, MCD improvements    
  Dmitry Ganyushin       : Spin-Orbit,Spin-Spin,Magnetic field MRCI      
  Miquel Garcia-Rates    : C-PCM and meta-GGA Hessian, CCSD/C-PCM, Gaussian charge scheme 
  Tiago L. C. Gouveia    : GS-ROHF, GS-ROCIS                             
  Yang Guo               : DLPNO-NEVPT2, F12-NEVPT2, CIM, IAO-localization        
  Andreas Hansen         : Spin unrestricted coupled pair/coupled cluster methods 
  Ingolf Harden          : AUTO-CI MPn and infrastructure                
  Benjamin Helmich-Paris : MC-RPA, TRAH-(SCF,CASSCF), AVAS, COSX integrals, SCF dyn. polar., MC-PDFT, srDFT 
  Lee Huntington         : MR-EOM, pCC                                   
  Robert Izsak           : Overlap fitted RIJCOSX, COSX-SCS-MP3, EOM     
  Riya Kayal             : Wick's Theorem for AUTO-CI, AUTO-CI UHF-CCSDT 
  Emily Kempfer          : AUTO-CI RHF CISDT and CCSDT, approximate NEVPT4
  Christian Kollmar      : KDIIS, OOCD, Brueckner-CCSD(T), CCSD density, CASPT2, CASPT2-K, improved NEVPT2 
  Axel Koslowski         : Symmetry handling                             
  Simone Kossmann        : meta-GGA functionals, TD-DFT gradient, OOMP2, (MP2 Hessian; deprecated post 5.0) 
  Lucas Lang             : DCDCAS, Hyperfine gauge corrections, ICE-SOC+SSC
  Marvin Lechner         : AUTO-CI (C++ implementation), FIC-MRCC        
  Spencer Leger          : CASSCF response                               
  Dagmar Lenk            : GEPOL surface, SMD, ORCA-2-JSON               
  Dimitrios Liakos       : Extrapolation schemes; Compound Job, Property file
  Dimitrios Manganas     : Further ROCIS development; embedding schemes. LFT, Crystal Embedding 
  Dimitrios Pantazis     : SARC Basis sets                               
  Anastasios Papadopoulos: AUTO-CI, single reference methods and gradients 
  Taras Petrenko         : pre 6.0 DFT Hessian and TD-DFT gradient,  ECA, NRVS 
  Petra Pikulova         : Analytic Raman intensities                    
  Peter Pinski           : DLPNO-MP2, DLPNO-MP2 Gradient                 
  Shashank Vittal Rao    : ES-AILFT, MagRelax                            
  Christoph Reimann      : Effective Core Potentials                     
  Marius Retegan         : Local ZFS, SOC                                
  Christoph Riplinger    : Optimizer, TS searches, QM/MM, DLPNO-CCSD(T), (RO)-DLPNO pert. Triples 
  Michael Roemelt        : Original ROCIS implementation, recursive CI coupling coefficients
  Masaaki Saitow         : Open-shell DLPNO-CCSD energy and density      
  Barbara Sandhoefer     : DKH picture change effects                    
  Yorick L. A. Schmerwitz: GMF and freeze-and-release deltaSCF, NEB S-IDPP initial path                    
  Kantharuban Sivalingam : CASSCF convergence/infrastructure, NEVPT2, NEVPT3, NEVPT4(SD), FIC-MRCI and CEPA variants
  Bernardo de Souza      : ESD, SOC TD-DFT                               
  Georgi L. Stoychev     : AutoAux, RI-MP2 NMR, DLPNO-MP2 response, X2C  
  Van Anh Tran           : RI-MP2 g-tensors                              
  Willem Van den Heuvel  : Paramagnetic NMR                              
  Zikuan Wang            : NOTCH, Electric field optimization            
  Frank Wennmohs         : Technical directorship and infrastructure     
  Hang Xu                : AUTO-CI-Response properties                   
                                                                         
[FACCTs GmbH]                                                            
  Markus Bursch, Nicolas Foglia, Miquel Garcia-Rates, Ingolf Harden, Hagen Neugebauer, Anastasios Papadopoulos, 
  Christoph Riplinger, Bernardo de Souza, Georgi L. Stoychev                                                    
                                                                 
  APM, various basis sets, CI-OPT, improved COSX, DLPNO-Multilevel,           
  DOCKER, DRACO, updates on ESD, Fragmentator, GOAT, IRC, LR-CPCM, L-BFGS, MBIS, meta-GGA TD-DFT gradient, ML-optimized integration grids, 
  MM, NACMEs, nearIR, NEB, NEB-TS, NL-DFT gradient (VV10), 2- and 3-layer-ONIOM, interface openCOSMO-RS, QMMM,   
  Crystal-QMMM, RESP, rigid body optimization, SF, symmetry and pop. for TD-DFT, various functionals, SOLVATOR                                   
                                                                         
[Other institutions]                                                     
  V. Asgeirsson          : NEB                                           
  Christoph Bannwarth    : sTDA-DFT, sTD-DFT, PBEh-3c, B97-3c, D3        
  Giovanni Bistoni       : ETS/NOCV, ADLD/ADEX, COVALED                  
  Martin Brehm           : Molecular dynamics                            
  Ronald Cardenas        : ETS/NOCV                                      
  Martina Colucci        : COVALED                                       
  Sebastian Ehlert       : rSCAN, r2SCAN, r2SCAN-3c, D4, dhf basis sets  
  Marvin Friede          : D4 for Fr, Ra, Ac-Lr                          
  Lars Goerigk           : TD-DFT with DH, B97 family of functionals     
  Stefan Grimme          : VdW corrections, initial TS optimization, DFT functionals, gCP, sTDA/sTD-DF 
  Waldemar Hujo          : DFT-NL                                        
  H. Jonsson             : NEB                                           
  Holger Kruse           : gCP                                           
  Marcel Mueller         : wB97X-3c, vDZP basis set                      
  Hagen Neugebauer       : wr2SCAN, Native XTB                           
  Gianluca Regni         : ADLD/ADEX                                     
  Tobias Risthaus        : pre 6.0 range-separated hybrid DFT and stability analysis
  Lukas Wittmann         : regularized MP2, r2SCAN double-hybrids, wr2SCAN        
                                                                         
We gratefully acknowledge several colleagues who have allowed us to      
interface, adapt or use parts of their codes:                            
  Ed Valeev, F. Pavosevic, A. Kumar             : LibInt (2-el integral package), F12 methods 
  Garnet Chan, S. Sharma, J. Yang, R. Olivares  : DMRG                   
  Ulf Ekstrom                                   : XCFun DFT Library      
  Mihaly Kallay                                 : mrcc  (arbitrary order and MRCC methods)
  Frank Weinhold                                : gennbo (NPA and NBO analysis)           
  Simon Mueller                                 : openCOSMO-RS                            
  Christopher J. Cramer and Donald G. Truhlar   : smd solvation model                     
  S Lehtola, MJT Oliveira, MAL Marques          : LibXC Library                           
  Liviu Ungur et al                             : ANISO software                          


 Your calculation uses the libint2 library for the computation of 2-el integrals
 For citations please refer to: http://libint.valeyev.net

 Your ORCA version has been built with support for libXC version: 7.0.0
 For citations please refer to: https://libxc.gitlab.io

 This ORCA versions uses:
   CBLAS   interface :  Fast vector & matrix operations
   LAPACKE interface :  Fast linear algebra routines
   SCALAPACK package :  Parallel linear algebra routines
   Shared memory     :  Shared parallel matrices
   BLAS/LAPACK       :  OpenBLAS 0.3.29  USE64BITINT DYNAMIC_ARCH NO_AFFINITY Cooperlake SINGLE_THREADED
        Core in use  :  Cooperlake
   Copyright (c) 2011-2014, The OpenBLAS Project


  ***********************************
  * Starting time: Tue Jan 27 15:44:17 2026
  * Host name:     node237.cluster
  * Process ID:    48496
  * Working dir.:  /scratch/56627047
  ***********************************

NOTE: MaxCore=12000 MB was set to SCF,MP2,MDCI,CIPSI,MRCI,RASCI and CIS
      => If you want to overwrite this, your respective input block should be placed after the MaxCore statement
Your calculation utilizes the geometrical counterpoise correction gCP
Please cite in your paper:
H.Kruse, S. Grimme J.Chem.Phys., 136, (2012), 154101 
   

Your calculation utilizes the atom-pairwise dispersion correction
based on EEQ partial charges (D4)


================================================================================

----- Orbital basis set information -----
Your calculation utilizes the basis: def2-mTZVPP
   Stefan Grimme, Andreas Hansen, Sebastian Ehlert, and Jan-Michael Mewes 
   J. Chem. Phys. 154, 064103 (2021). DOI: 10.1063/5.0040021

----- AuxJ basis set information -----
Your calculation utilizes the basis: def2-mTZVPP/J
   Stefan Grimme, Andreas Hansen, Sebastian Ehlert, and Jan-Michael Mewes 
   J. Chem. Phys. 154, 000000 (2021). DOI: 10.1063/5.0040021

================================================================================
                                        WARNINGS
                       Please study these warnings very carefully!
================================================================================



WARNING: SCAN, rSCAN, or r2SCAN functional requested.
  ===> : libXC variant has now been activated.



WARNING: Geometry Optimization
  ===> : Switching off AutoStart
         For restart on a previous wavefunction, please use MOREAD

================================================================================
                                       INPUT FILE
================================================================================
NAME = 17_4_confsstruct_2.inp
|  1> !r2scan-3c opt freq 
|  2> %pal 
|  3> nprocs 8 
|  4> end 
|  5> %maxcore 12000
|  6>  
|  7> * XYZ 0 1 
|  8> O     -3.72380400     -9.95144300      0.99195100
|  9> C     -3.56575900     -8.78094400      1.22421500
| 10> O     -2.65878800     -7.99762400      0.86688700
| 11> Ni     -2.77506500     -6.25387200      1.39813800
| 12> N     -3.94889100     -6.88785800      2.68577400
| 13> C     -4.68652600     -7.95402200      2.10307500
| 14> C     -5.55887300     -8.74402900      3.04332400
| 15> C     -6.02461600     -8.14126900      4.20982000
| 16> C     -6.86261800     -8.82757100      5.06790500
| 17> C     -7.25632900    -10.12184200      4.77341100
| 18> C     -6.81853700    -10.71680800      3.60353100
| 19> C     -5.98280400    -10.03158200      2.73883000
| 20> C     -3.24993400     -7.15062000      3.84220300
| 21> C     -2.90918100     -8.44540900      4.28285800
| 22> C     -2.19311300     -8.61718500      5.44838100
| 23> C     -1.81413700     -7.52849600      6.22005500
| 24> C     -2.15985400     -6.24757300      5.81015200
| 25> C     -2.86601300     -6.05729300      4.64415100
| 26> C     -1.86050300     -2.96119000      0.07941700
| 27> C     -1.71254600     -4.21308400      0.91840300
| 28> C     -0.24674500     -4.51566100      1.48177600
| 29> C     -0.40654100     -5.75606200      0.65329600
| 30> C      0.48949800     -6.90437000      0.41688300
| 31> N     -1.58875300     -5.52244900      0.16007400
| 32> C      0.90339200     -3.57165800      1.26587200
| 33> C      1.49624900     -3.36445200      0.01376200
| 34> C      1.12966700     -4.08340000     -1.25687600
| 35> C      2.53930200     -2.44935200     -0.10615300
| 36> C      3.01089400     -1.74573300      0.97989800
| 37> C      2.44503700     -1.97033800      2.22009100
| 38> C      1.40599200     -2.87436800      2.37919700
| 39> C      0.87097700     -3.08629100      3.76581400
| 40> N     -2.77391700     -4.46571100      1.85984700
| 41> C     -3.92712000     -3.65423900      1.82903200
| 42> C     -4.00753800     -2.60393300      2.76009300
| 43> C     -2.86867400     -2.32011400      3.69328200
| 44> C     -5.13521900     -1.79989100      2.80605500
| 45> C     -6.19616900     -2.01481400      1.94809100
| 46> C     -6.12089000     -3.04238500      1.02827000
| 47> C     -5.00369500     -3.86177700      0.94876900
| 48> C     -4.99947000     -4.93391200     -0.10595800
| 49> H     -5.32228200     -7.55533500      1.29803200
| 50> H     -5.74056100     -7.12493600      4.43908800
| 51> H     -7.21324500     -8.34503400      5.96863500
| 52> H     -7.90674600    -10.65924500      5.44779800
| 53> H     -7.12984800    -11.72135600      3.35741100
| 54> H     -5.63843800    -10.50750800      1.83496000
| 55> H     -3.17101100     -9.30909200      3.69083500
| 56> H     -1.92508500     -9.61633400      5.75979300
| 57> H     -1.25725700     -7.67735900      7.13286200
| 58> H     -1.88035700     -5.39503100      6.41261400
| 59> H     -3.16966500     -5.07292100      4.32580100
| 60> H     -1.00886800     -2.82454800     -0.57666900
| 61> H     -1.93510400     -2.10187300      0.74171800
| 62> H     -2.76591600     -3.02192500     -0.51893300
| 63> H     -0.31581300     -4.76918400      2.54077600
| 64> H      0.49340200     -7.53702100      1.30552300
| 65> H      1.50941900     -6.56552700      0.24480900
| 66> H      0.12847100     -7.49652800     -0.42084800
| 67> H      1.94065900     -4.75751400     -1.53643200
| 68> H      0.21839700     -4.66302000     -1.18715500
| 69> H      1.01833500     -3.36288400     -2.06688600
| 70> H      2.98466500     -2.29778100     -1.07893700
| 71> H      3.81725300     -1.03715100      0.86596300
| 72> H      2.81898600     -1.43758100      3.08219100
| 73> H      1.01094100     -4.11862500      4.08813000
| 74> H     -0.18810000     -2.85011200      3.81968300
| 75> H      1.39704900     -2.44484400      4.46857000
| 76> H     -2.23833100     -3.20031100      3.77756600
| 77> H     -2.26590500     -1.49375800      3.31329700
| 78> H     -3.23867200     -2.03997900      4.67749900
| 79> H     -5.17716800     -0.99741700      3.52877900
| 80> H     -7.07370400     -1.38774600      1.99531100
| 81> H     -6.94360200     -3.21638800      0.34907300
| 82> H     -4.19582400     -5.67987800      0.05971400
| 83> H     -4.83886300     -4.49167400     -1.09030400
| 84> H     -5.95915200     -5.44779000     -0.12468300
| 85> 
| 86> **                         ****END OF INPUT****
================================================================================

                       *****************************
                       * Geometry Optimization Run *
                       *****************************

Geometry optimization settings:
Update method            Update   .... BFGS
Choice of coordinates    CoordSys .... (2022) Redundant Internals
Initial Hessian          InHess   .... Almloef's Model
Max. no of cycles        MaxIter  .... 231

Convergence Tolerances:
Energy Change            TolE     ....  5.0000e-06 Eh
Max. Gradient            TolMAXG  ....  3.0000e-04 Eh/bohr
RMS Gradient             TolRMSG  ....  1.0000e-04 Eh/bohr
Max. Displacement        TolMAXD  ....  4.0000e-03 bohr
RMS Displacement         TolRMSD  ....  2.0000e-03 bohr
Strict Convergence                .... False

------------------------------------------------------------------------------
                        ORCA OPTIMIZATION COORDINATE SETUP
------------------------------------------------------------------------------

The optimization will be done in redundant internal coordinates (2022)
Making redundant internal coordinates   ...  (2022 redundants) done
Evaluating the initial hessian          ...  (Almloef) done
Evaluating the coordinates              ...  done
Calculating the B-matrix                .... done
Calculating the G-matrix                .... done
The number of degrees of freedom        ....  614

    -----------------------------------------------------------------
                    Redundant Internal Coordinates


    -----------------------------------------------------------------
         Definition                    Initial Value    Approx d2E/dq
    -----------------------------------------------------------------
      1. B(C   1,O   0)                  1.2037         1.109276   
      2. B(O   2,C   1)                  1.2505         0.934034   
      3. B(Ni  3,C   1)                  2.6536         0.060938   
      4. B(Ni  3,O   2)                  1.8266         1.138817   
      5. B(N   4,Ni  3)                  1.8541         1.029211   
      6. B(C   5,C   1)                  1.6469         0.243139   
      7. B(C   5,N   4)                  1.4214         0.498649   
      8. B(C   5,Ni  3)                  2.6535         0.060955   
      9. B(C   6,C   5)                  1.5064         0.407444   
     10. B(C   7,C   6)                  1.3932         0.617541   
     11. B(C   8,C   7)                  1.3819         0.643736   
     12. B(C   9,C   8)                  1.3845         0.637522   
     13. B(C  10,C   9)                  1.3836         0.639731   
     14. B(C  11,C   6)                  1.3893         0.626345   
     15. B(C  11,C  10)                  1.3841         0.638521   
     16. B(C  12,N   4)                  1.3766         0.587923   
     17. B(C  12,Ni  3)                  2.6463         0.062583   
     18. B(C  13,C  12)                  1.4095         0.581545   
     19. B(C  14,C  13)                  1.3787         0.651374   
     20. B(C  15,C  14)                  1.3872         0.631237   
     21. B(C  16,C  15)                  1.3886         0.627940   
     22. B(C  17,C  16)                  1.3764         0.656850   
     23. B(C  17,C  12)                  1.4092         0.582219   
     24. B(C  19,C  18)                  1.5143         0.395791   
     25. B(C  19,Ni  3)                  2.3503         0.185681   
     26. B(C  20,C  19)                  1.5992         0.289692   
     27. B(C  21,C  20)                  1.5002         0.416841   
     28. B(C  21,Ni  3)                  2.5323         0.095150   
     29. B(C  22,C  21)                  1.4756         0.456219   
     30. B(N  23,C  19)                  1.5182         0.349459   
     31. B(N  23,Ni  3)                  1.8642         0.991967   
     32. B(N  23,C  21)                  1.3021         0.772880   
     33. B(C  24,C  20)                  1.5035         0.411742   
     34. B(C  25,C  24)                  1.4008         0.600530   
     35. B(C  26,C  25)                  1.5053         0.409127   
     36. B(C  27,C  25)                  1.3927         0.618521   
     37. B(C  28,C  27)                  1.3773         0.654611   
     38. B(C  29,C  28)                  1.3816         0.644462   
     39. B(C  30,C  29)                  1.3864         0.633035   
     40. B(C  30,C  24)                  1.4065         0.587995   
     41. B(C  31,C  30)                  1.5013         0.415135   
     42. B(N  32,C  19)                  1.4411         0.463892   
     43. B(N  32,Ni  3)                  1.8468         1.057289   
     44. B(C  33,N  32)                  1.4104         0.519135   
     45. B(C  34,C  33)                  1.4059         0.589401   
     46. B(C  35,C  34)                  1.4995         0.417915   
     47. B(C  36,C  34)                  1.3857         0.634664   
     48. B(C  37,C  36)                  1.3813         0.645157   
     49. B(C  38,C  37)                  1.3812         0.645388   
     50. B(C  39,C  38)                  1.3877         0.629984   
     51. B(C  39,C  33)                  1.4060         0.589044   
     52. B(C  40,C  39)                  1.5040         0.411054   
     53. B(H  41,C   5)                  1.1006         0.346399   
     54. B(H  42,C   7)                  1.0799         0.373712   
     55. B(H  43,C   8)                  1.0803         0.373133   
     56. B(H  44,C   9)                  1.0801         0.373421   
     57. B(H  45,C  10)                  1.0801         0.373444   
     58. B(H  46,C  11)                  1.0780         0.376336   
     59. B(H  47,C  13)                  1.0793         0.374469   
     60. B(H  48,C  14)                  1.0803         0.373121   
     61. B(H  49,C  15)                  1.0796         0.374152   
     62. B(H  50,C  16)                  1.0807         0.372619   
     63. B(H  51,C  17)                  1.0782         0.376038   
     64. B(H  52,C  18)                  1.0837         0.368534   
     65. B(H  53,C  18)                  1.0875         0.363436   
     66. B(H  54,C  18)                  1.0870         0.364143   
     67. B(H  55,C  20)                  1.0911         0.358632   
     68. B(H  56,C  22)                  1.0908         0.358983   
     69. B(H  57,C  22)                  1.0884         0.362193   
     70. B(H  58,C  22)                  1.0876         0.363344   
     71. B(H  59,C  26)                  1.0910         0.358775   
     72. B(H  60,C  26)                  1.0822         0.370520   
     73. B(H  61,C  26)                  1.0898         0.360371   
     74. B(H  62,C  27)                  1.0806         0.372794   
     75. B(H  63,C  28)                  1.0795         0.374284   
     76. B(H  64,C  29)                  1.0802         0.373267   
     77. B(H  65,C  31)                  1.0905         0.359439   
     78. B(H  66,C  31)                  1.0864         0.364856   
     79. B(H  67,C  31)                  1.0872         0.363781   
     80. B(H  68,C  35)                  1.0859         0.365562   
     81. B(H  69,C  35)                  1.0911         0.358597   
     82. B(H  70,C  35)                  1.0881         0.362564   
     83. B(H  71,C  36)                  1.0808         0.372526   
     84. B(H  72,C  37)                  1.0796         0.374140   
     85. B(H  73,C  38)                  1.0809         0.372281   
     86. B(H  74,C  40)                  1.1089         0.335890   
     87. B(H  74,Ni  3)                  2.0346         0.113390   
     88. B(H  75,C  40)                  1.0910         0.358764   
     89. B(H  76,C  40)                  1.0888         0.361737   
     90. A(O   0,C   1,C   5)          120.1229         0.404851   
     91. A(O   0,C   1,O   2)          130.4793         0.513806   
     92. A(O   2,C   1,Ni  3)           37.4490         0.345515   
     93. A(Ni  3,C   1,C   5)           71.9188         0.279724   
     94. A(O   0,C   1,Ni  3)          167.9023         0.355696   
     95. A(O   2,C   1,C   5)          109.3617         0.392795   
     96. A(C   1,O   2,Ni  3)          117.9501         0.583741   
     97. A(N   4,Ni  3,C  21)          149.7266         0.424781   
     98. A(C   1,Ni  3,N  32)          159.8264         0.394422   
     99. A(C   1,Ni  3,H  74)           91.0014         0.257108   
    100. A(C  19,Ni  3,N  32)           37.8157         0.482026   
    101. A(C   1,Ni  3,C  21)          116.5279         0.267131   
    102. A(C  12,Ni  3,C  21)          120.4050         0.268208   
    103. A(C  12,Ni  3,H  74)          125.3000         0.258124   
    104. A(O   2,Ni  3,N  23)           98.0996         0.669626   
    105. A(C  21,Ni  3,H  74)          113.8407         0.274947   
    106. A(C   5,Ni  3,C  19)          159.4264         0.296246   
    107. A(O   2,Ni  3,C   5)           60.7554         0.399621   
    108. A(O   2,Ni  3,N   4)           85.1733         0.674490   
    109. A(C   1,Ni  3,C  19)          161.4846         0.296233   
    110. A(C  12,Ni  3,N  32)           95.5848         0.396269   
    111. A(C   5,Ni  3,C  12)           53.7199         0.251026   
    112. A(O   2,Ni  3,H  74)           97.0336         0.413229   
    113. A(C  21,Ni  3,N  23)           29.8075         0.421992   
    114. A(C  19,Ni  3,H  74)           86.3561         0.305326   
    115. A(N  32,Ni  3,H  74)           83.7847         0.407824   
    116. A(C   5,Ni  3,H  74)           81.5175         0.257119   
    117. A(N  23,Ni  3,N  32)           77.6280         0.659945   
    118. A(C  12,Ni  3,C  19)          124.3243         0.297486   
    119. A(C  12,Ni  3,N  23)          149.3755         0.391866   
    120. A(C  19,Ni  3,C  21)           49.1883         0.318224   
    121. A(C   5,Ni  3,C  21)          151.3853         0.267142   
    122. A(C  19,Ni  3,N  23)           40.1870         0.476394   
    123. A(C   1,Ni  3,O   2)           24.6010         0.399601   
    124. A(N   4,Ni  3,N  32)           99.0819         0.664728   
    125. A(C   1,Ni  3,C  12)           71.6003         0.251016   
    126. A(C   1,Ni  3,N  23)          121.3151         0.390046   
    127. A(C   5,Ni  3,N  32)          123.6695         0.394442   
    128. A(C   5,Ni  3,N  23)          152.4047         0.390065   
    129. A(N   4,Ni  3,C  12)           29.4416         0.394403   
    130. A(C  21,Ni  3,N  32)           83.2586         0.426833   
    131. A(C   1,Ni  3,C   5)           36.1573         0.250052   
    132. A(O   2,Ni  3,C  21)           92.4404         0.432561   
    133. A(N   4,Ni  3,C   5)           30.7262         0.392587   
    134. A(N   4,Ni  3,H  74)           96.3860         0.405887   
    135. A(O   2,Ni  3,C  19)          137.7986         0.488690   
    136. A(N   4,Ni  3,C  19)          136.4571         0.479639   
    137. A(C   1,Ni  3,N   4)           62.0466         0.392567   
    138. A(N  23,Ni  3,H  74)           84.0763         0.403255   
    139. A(O   2,Ni  3,C  12)           87.5091         0.401479   
    140. A(Ni  3,N   4,C   5)          107.4770         0.508506   
    141. A(Ni  3,N   4,C  12)          109.1006         0.524439   
    142. A(C   5,N   4,C  12)          117.6919         0.408222   
    143. A(C   6,C   5,H  41)          108.1818         0.326889   
    144. A(Ni  3,C   5,H  41)           89.4093         0.267726   
    145. A(C   1,C   5,H  41)          100.6412         0.300654   
    146. A(C   1,C   5,Ni  3)           71.9239         0.279736   
    147. A(C   1,C   5,C   6)          117.6364         0.342876   
    148. A(N   4,C   5,C   6)          115.9777         0.385235   
    149. A(Ni  3,C   5,N   4)           41.7968         0.311561   
    150. A(Ni  3,C   5,C   6)          156.7799         0.303379   
    151. A(C   1,C   5,N   4)          104.0180         0.352565   
    152. A(N   4,C   5,H  41)          109.1431         0.335969   
    153. A(C   7,C   6,C  11)          118.8460         0.434551   
    154. A(C   5,C   6,C  11)          121.7309         0.403511   
    155. A(C   5,C   6,C   7)          119.2956         0.402505   
    156. A(C   6,C   7,H  42)          119.8024         0.354895   
    157. A(C   6,C   7,C   8)          120.5159         0.436700   
    158. A(C   8,C   7,H  42)          119.6759         0.357407   
    159. A(C   9,C   8,H  43)          120.1721         0.356725   
    160. A(C   7,C   8,H  43)          119.5194         0.357313   
    161. A(C   7,C   8,C   9)          120.3076         0.439215   
    162. A(C   8,C   9,H  44)          120.2350         0.356771   
    163. A(C  10,C   9,H  44)          120.2996         0.356981   
    164. A(C   8,C   9,C  10)          119.4634         0.438720   
    165. A(C   9,C  10,C  11)          120.4258         0.438844   
    166. A(C  11,C  10,H  45)          119.4802         0.356870   
    167. A(C   9,C  10,H  45)          120.0939         0.356985   
    168. A(C   6,C  11,C  10)          120.4064         0.437174   
    169. A(C  10,C  11,H  46)          119.8777         0.357338   
    170. A(C   6,C  11,H  46)          119.6988         0.356171   
    171. A(Ni  3,C  12,N   4)           41.4577         0.321396   
    172. A(C  13,C  12,C  17)          117.9641         0.424296   
    173. A(N   4,C  12,C  17)          117.9246         0.422359   
    174. A(Ni  3,C  12,C  13)          123.8230         0.322746   
    175. A(Ni  3,C  12,C  17)          102.3443         0.322807   
    176. A(N   4,C  12,C  13)          124.1062         0.422271   
    177. A(C  12,C  13,C  14)          120.2857         0.432922   
    178. A(C  14,C  13,H  47)          119.3405         0.358248   
    179. A(C  12,C  13,H  47)          120.3269         0.351426   
    180. A(C  13,C  14,C  15)          120.9567         0.439365   
    181. A(C  15,C  14,H  48)          119.8481         0.356123   
    182. A(C  13,C  14,H  48)          119.1952         0.358028   
    183. A(C  14,C  15,C  16)          119.4532         0.436471   
    184. A(C  16,C  15,H  49)          120.3447         0.355973   
    185. A(C  14,C  15,H  49)          120.2020         0.356290   
    186. A(C  15,C  16,C  17)          120.3526         0.439613   
    187. A(C  17,C  16,H  50)          119.7287         0.358457   
    188. A(C  15,C  16,H  50)          119.9170         0.355725   
    189. A(C  12,C  17,C  16)          120.9713         0.433665   
    190. A(C  16,C  17,H  51)          121.3880         0.359014   
    191. A(C  12,C  17,H  51)          117.6177         0.351743   
    192. A(H  53,C  18,H  54)          108.7998         0.291773   
    193. A(H  52,C  18,H  53)          108.8435         0.292324   
    194. A(H  52,C  18,H  54)          109.1705         0.292413   
    195. A(C  19,C  18,H  54)          109.8884         0.328019   
    196. A(C  19,C  18,H  53)          108.8168         0.327914   
    197. A(C  19,C  18,H  52)          111.2776         0.328668   
    198. A(C  18,C  19,C  20)          116.1777         0.351415   
    199. A(Ni  3,C  19,C  20)          100.2631         0.344356   
    200. A(N  23,C  19,N  32)          103.6027         0.368162   
    201. A(C  20,C  19,N  32)          114.3156         0.358778   
    202. A(Ni  3,C  19,C  18)          141.8852         0.363045   
    203. A(C  18,C  19,N  32)          115.7808         0.378522   
    204. A(Ni  3,C  19,N  32)           51.7907         0.370734   
    205. A(C  20,C  19,N  23)           86.4480         0.342024   
    206. A(C  18,C  19,N  23)          116.3748         0.360543   
    207. A(Ni  3,C  19,N  23)           52.4056         0.353238   
    208. A(C  19,C  20,C  21)           82.1986         0.354511   
    209. A(C  21,C  20,C  24)          121.4209         0.376502   
    210. A(C  24,C  20,H  55)          109.4924         0.329335   
    211. A(C  19,C  20,C  24)          122.1246         0.353772   
    212. A(C  21,C  20,H  55)          109.7029         0.330006   
    213. A(C  19,C  20,H  55)          109.1386         0.310952   
    214. A(C  20,C  21,C  22)          131.8547         0.383255   
    215. A(Ni  3,C  21,C  22)          117.5233         0.332259   
    216. A(Ni  3,C  21,C  20)           95.7239         0.327339   
    217. A(C  22,C  21,N  23)          129.0692         0.424604   
    218. A(C  20,C  21,N  23)           99.0650         0.417816   
    219. A(Ni  3,C  21,N  23)           45.3702         0.360830   
    220. A(C  21,C  22,H  58)          110.2153         0.335708   
    221. A(H  57,C  22,H  58)          111.0263         0.291515   
    222. A(H  56,C  22,H  58)          108.2346         0.291107   
    223. A(H  56,C  22,H  57)          107.8176         0.290962   
    224. A(C  21,C  22,H  57)          110.6149         0.335531   
    225. A(C  21,C  22,H  56)          108.8435         0.335035   
    226. A(C  19,N  23,C  21)           92.2674         0.402353   
    227. A(Ni  3,N  23,C  21)          104.8222         0.548400   
    228. A(Ni  3,N  23,C  19)           87.4074         0.472856   
    229. A(C  20,C  24,C  30)          118.0958         0.399783   
    230. A(C  25,C  24,C  30)          118.8791         0.427498   
    231. A(C  20,C  24,C  25)          123.0240         0.401270   
    232. A(C  24,C  25,C  26)          125.5082         0.400820   
    233. A(C  26,C  25,C  27)          115.0577         0.402911   
    234. A(C  24,C  25,C  27)          119.4141         0.431398   
    235. A(H  60,C  26,H  61)          108.4187         0.292181   
    236. A(H  59,C  26,H  61)          107.0975         0.290705   
    237. A(C  25,C  26,H  61)          109.6648         0.329252   
    238. A(H  59,C  26,H  60)          108.1496         0.291977   
    239. A(C  25,C  26,H  60)          113.9843         0.330767   
    240. A(C  25,C  26,H  59)          109.2922         0.329010   
    241. A(C  28,C  27,H  62)          119.8079         0.358277   
    242. A(C  25,C  27,C  28)          121.6143         0.438146   
    243. A(C  25,C  27,H  62)          118.5774         0.354843   
    244. A(C  27,C  28,C  29)          118.9830         0.441408   
    245. A(C  29,C  28,H  63)          120.4913         0.357569   
    246. A(C  27,C  28,H  63)          120.5226         0.358520   
    247. A(C  28,C  29,C  30)          121.0626         0.438745   
    248. A(C  30,C  29,H  64)          119.3037         0.356319   
    249. A(C  28,C  29,H  64)          119.6331         0.357403   
    250. A(C  29,C  30,C  31)          117.7177         0.405606   
    251. A(C  24,C  30,C  31)          122.2598         0.400361   
    252. A(C  24,C  30,C  29)          120.0146         0.431561   
    253. A(H  66,C  31,H  67)          108.1422         0.291906   
    254. A(H  65,C  31,H  67)          107.7800         0.291220   
    255. A(C  30,C  31,H  67)          109.9551         0.330560   
    256. A(H  65,C  31,H  66)          108.4367         0.291356   
    257. A(C  30,C  31,H  66)          111.2543         0.330722   
    258. A(C  30,C  31,H  65)          111.1545         0.329904   
    259. A(C  19,N  32,C  33)          119.1479         0.394323   
    260. A(Ni  3,N  32,C  33)          123.4422         0.514933   
    261. A(Ni  3,N  32,C  19)           90.3936         0.504223   
    262. A(C  34,C  33,C  39)          118.7567         0.426204   
    263. A(N  32,C  33,C  39)          123.6965         0.413957   
    264. A(N  32,C  33,C  34)          117.5243         0.414002   
    265. A(C  35,C  34,C  36)          119.1834         0.406269   
    266. A(C  33,C  34,C  36)          120.1320         0.431945   
    267. A(C  33,C  34,C  35)          120.6719         0.401000   
    268. A(H  69,C  35,H  70)          107.9299         0.290960   
    269. A(H  68,C  35,H  70)          109.6242         0.291841   
    270. A(C  34,C  35,H  70)          110.6943         0.330742   
    271. A(H  68,C  35,H  69)          108.6769         0.291337   
    272. A(C  34,C  35,H  69)          110.2544         0.330141   
    273. A(C  34,C  35,H  68)          109.6188         0.331193   
    274. A(C  34,C  36,C  37)          120.9424         0.439034   
    275. A(C  37,C  36,H  71)          120.0718         0.357348   
    276. A(C  34,C  36,H  71)          118.9855         0.356354   
    277. A(C  36,C  37,C  38)          119.1803         0.440364   
    278. A(C  38,C  37,H  72)          120.3690         0.357633   
    279. A(C  36,C  37,H  72)          120.4506         0.357611   
    280. A(C  37,C  38,C  39)          121.4203         0.438476   
    281. A(C  39,C  38,H  73)          118.7951         0.355867   
    282. A(C  37,C  38,H  73)          119.7840         0.357330   
    283. A(C  38,C  39,C  40)          117.6033         0.404553   
    284. A(C  33,C  39,C  40)          122.8282         0.399791   
    285. A(C  33,C  39,C  38)          119.5633         0.431324   
    286. A(H  75,C  40,H  76)          107.7916         0.290877   
    287. A(H  74,C  40,H  76)          108.8960         0.287889   
    288. A(C  39,C  40,H  76)          110.2456         0.329713   
    289. A(H  74,C  40,H  75)          107.5043         0.287518   
    290. A(C  39,C  40,H  75)          110.1320         0.329264   
    291. A(C  39,C  40,H  74)          112.1355         0.325708   
    292. A(Ni  3,H  74,C  40)          142.5725         0.274259   
    293. D(Ni  3,O   2,C   1,C   5)      1.0750         0.077538   
    294. D(Ni  3,O   2,C   1,O   0)    178.8405         0.077538   
    295. D(C  12,Ni  3,O   2,C   1)     48.4001         0.010000   
    296. D(C   5,Ni  3,C   1,O   2)    178.9331         0.010000   
    297. D(N   4,Ni  3,C   1,O   2)   -158.4669         0.010000   
    298. D(C  12,Ni  3,C   1,O   2)   -128.0620         0.010000   
    299. D(N   4,Ni  3,C   1,O   0)   -162.6787         0.010000   
    300. D(C  21,Ni  3,O   2,C   1)    168.7443         0.010000   
    301. D(N   4,Ni  3,C   1,C   5)     22.5999         0.010000   
    302. D(N  23,Ni  3,O   2,C   1)   -161.8509         0.010000   
    303. D(N   4,Ni  3,O   2,C   1)     18.9880         0.010000   
    304. D(C  12,Ni  3,C   1,C   5)     53.0049         0.010000   
    305. D(C  12,Ni  3,C   1,O   0)   -132.2738         0.010000   
    306. D(C   5,Ni  3,C   1,O   0)    174.7214         0.010000   
    307. D(C   5,Ni  3,O   2,C   1)     -0.7214         0.010000   
    308. D(O   2,Ni  3,C   1,O   0)     -4.2118         0.010000   
    309. D(C  19,Ni  3,O   2,C   1)   -169.2038         0.010000   
    310. D(C  19,Ni  3,C   1,O   2)     23.3430         0.010000   
    311. D(O   2,Ni  3,C   1,C   5)   -178.9331         0.010000   
    312. D(C  19,Ni  3,C   1,O   0)     19.1312         0.010000   
    313. D(H  74,Ni  3,O   2,C   1)    -76.8693         0.010000   
    314. D(C  12,N   4,Ni  3,C  19)    -78.5237         0.010000   
    315. D(C   5,N   4,Ni  3,H  74)     61.3929         0.010000   
    316. D(C   5,N   4,Ni  3,C  21)   -121.7311         0.010000   
    317. D(C   5,N   4,Ni  3,C   1)    -26.3443         0.010000   
    318. D(C   5,N   4,Ni  3,C  19)    152.8215         0.010000   
    319. D(C   5,N   4,Ni  3,C  12)   -128.6548         0.010000   
    320. D(C   5,N   4,Ni  3,N  32)    146.0892         0.010000   
    321. D(C  12,N   4,Ni  3,O   2)     93.4899         0.010000   
    322. D(C  12,N   4,Ni  3,C   5)    128.6548         0.010000   
    323. D(C  12,N   4,Ni  3,C   1)    102.3105         0.010000   
    324. D(C  12,N   4,Ni  3,C  21)      6.9237         0.010000   
    325. D(C   5,N   4,Ni  3,O   2)    -35.1649         0.010000   
    326. D(C   6,C   5,N   4,C  12)     47.8682         0.022889   
    327. D(Ni  3,C   5,N   4,C  12)   -123.5518         0.022889   
    328. D(H  41,C   5,N   4,Ni  3)    -66.1304         0.022889   
    329. D(C   1,C   5,N   4,C  12)    -82.9361         0.022889   
    330. D(C   6,C   5,N   4,Ni  3)    171.4200         0.022889   
    331. D(C   1,C   5,Ni  3,N  32)   -179.8136         0.010000   
    332. D(N   4,C   5,Ni  3,C   1)    138.3648         0.010000   
    333. D(N   4,C   5,Ni  3,O   2)    138.8738         0.010000   
    334. D(C   1,C   5,Ni  3,H  74)    103.5350         0.010000   
    335. D(N   4,C   5,Ni  3,C  21)    116.4534         0.010000   
    336. D(C   1,C   5,N   4,Ni  3)     40.6156         0.022889   
    337. D(Ni  3,C   5,C   1,O   0)   -178.7227         0.010000   
    338. D(C   1,C   5,Ni  3,C  12)   -109.9296         0.010000   
    339. D(C   1,C   5,Ni  3,N   4)   -138.3648         0.010000   
    340. D(C   1,C   5,Ni  3,O   2)      0.5090         0.010000   
    341. D(N   4,C   5,Ni  3,C  12)     28.4352         0.010000   
    342. D(N   4,C   5,Ni  3,C  19)    -63.5639         0.010000   
    343. D(C   1,C   5,Ni  3,N  23)     44.2381         0.010000   
    344. D(C   1,C   5,Ni  3,C  19)    158.0713         0.010000   
    345. D(C   6,C   5,C   1,O   0)     24.3060         0.010000   
    346. D(C   6,C   5,C   1,O   2)   -157.6589         0.010000   
    347. D(C   1,C   5,Ni  3,C  21)    -21.9114         0.010000   
    348. D(N   4,C   5,C   1,Ni  3)    -27.1550         0.010000   
    349. D(H  41,C   5,N   4,C  12)    170.3178         0.022889   
    350. D(N   4,C   5,C   1,O   0)    154.1223         0.010000   
    351. D(N   4,C   5,C   1,O   2)    -27.8426         0.010000   
    352. D(Ni  3,C   5,C   1,O   2)     -0.6876         0.010000   
    353. D(C   7,C   6,C   5,N   4)     25.3306         0.013155   
    354. D(C   7,C   6,C   5,Ni  3)     39.9385         0.013155   
    355. D(C   7,C   6,C   5,C   1)    149.3362         0.013155   
    356. D(C  11,C   6,C   5,Ni  3)   -144.2168         0.013155   
    357. D(C  11,C   6,C   5,C   1)    -34.8190         0.013155   
    358. D(C   7,C   6,C   5,H  41)    -97.6247         0.013155   
    359. D(H  42,C   7,C   6,C  11)   -177.2524         0.026376   
    360. D(H  42,C   7,C   6,C   5)     -1.2870         0.026376   
    361. D(C   8,C   7,C   6,C  11)      1.8664         0.026376   
    362. D(C   8,C   7,C   6,C   5)    177.8318         0.026376   
    363. D(C   9,C   8,C   7,H  42)    178.7216         0.028814   
    364. D(H  43,C   8,C   7,C   6)    179.9272         0.028814   
    365. D(H  43,C   8,C   7,H  42)     -0.9529         0.028814   
    366. D(C   9,C   8,C   7,C   6)     -0.3983         0.028814   
    367. D(H  44,C   9,C   8,H  43)     -0.6841         0.028224   
    368. D(C  10,C   9,C   8,H  43)    178.8020         0.028224   
    369. D(H  44,C   9,C   8,C   7)    179.6435         0.028224   
    370. D(C  10,C   9,C   8,C   7)     -0.8703         0.028224   
    371. D(H  45,C  10,C   9,H  44)      0.2847         0.028433   
    372. D(H  45,C  10,C   9,C   8)   -179.2012         0.028433   
    373. D(C  11,C  10,C   9,H  44)   -179.8659         0.028433   
    374. D(C  11,C  10,C   9,C   8)      0.6483         0.028433   
    375. D(H  46,C  11,C  10,H  45)     -0.8100         0.028318   
    376. D(H  46,C  11,C  10,C   9)    179.3397         0.028318   
    377. D(C   6,C  11,C  10,H  45)   -179.3026         0.028318   
    378. D(C   6,C  11,C  10,C   9)      0.8470         0.028318   
    379. D(H  46,C  11,C   6,C   5)      3.5549         0.027181   
    380. D(C  10,C  11,C   6,C   7)     -2.0869         0.027181   
    381. D(H  46,C  11,C   6,C   7)    179.4177         0.027181   
    382. D(C  10,C  11,C   6,C   5)   -177.9498         0.027181   
    383. D(C  17,C  12,N   4,C   5)   -160.8331         0.030186   
    384. D(C  17,C  12,N   4,Ni  3)     76.4370         0.030186   
    385. D(C  13,C  12,N   4,Ni  3)   -104.4070         0.030186   
    386. D(C  13,C  12,Ni  3,O   2)     20.5400         0.010000   
    387. D(C  13,C  12,Ni  3,C   1)     39.6921         0.010000   
    388. D(C  13,C  12,Ni  3,N   4)    105.1305         0.010000   
    389. D(N   4,C  12,Ni  3,H  74)     12.2657         0.010000   
    390. D(N   4,C  12,Ni  3,N  32)     98.5932         0.010000   
    391. D(N   4,C  12,Ni  3,N  23)    173.6758         0.010000   
    392. D(C  13,C  12,Ni  3,C   5)     75.4636         0.010000   
    393. D(N   4,C  12,Ni  3,C  21)   -175.9595         0.010000   
    394. D(N   4,C  12,Ni  3,C  19)    125.1666         0.010000   
    395. D(N   4,C  12,Ni  3,C   5)    -29.6670         0.010000   
    396. D(N   4,C  12,Ni  3,O   2)    -84.5906         0.010000   
    397. D(C  13,C  12,N   4,C   5)     18.3228         0.030186   
    398. D(N   4,C  12,Ni  3,C   1)    -65.4384         0.010000   
    399. D(Ni  3,C  12,N   4,C   5)    122.7298         0.030186   
    400. D(H  47,C  13,C  12,N   4)      1.7886         0.025238   
    401. D(H  47,C  13,C  12,Ni  3)    -48.7343         0.025238   
    402. D(C  14,C  13,C  12,C  17)     -1.5649         0.025238   
    403. D(C  14,C  13,C  12,N   4)    179.2794         0.025238   
    404. D(C  14,C  13,C  12,Ni  3)    128.7565         0.025238   
    405. D(H  48,C  14,C  13,H  47)     -1.3206         0.029551   
    406. D(H  48,C  14,C  13,C  12)   -178.8360         0.029551   
    407. D(C  15,C  14,C  13,H  47)    178.6122         0.029551   
    408. D(C  15,C  14,C  13,C  12)      1.0968         0.029551   
    409. D(H  49,C  15,C  14,H  48)     -0.3331         0.027634   
    410. D(H  49,C  15,C  14,C  13)    179.7345         0.027634   
    411. D(C  16,C  15,C  14,H  48)    179.8243         0.027634   
    412. D(C  16,C  15,C  14,C  13)     -0.1081         0.027634   
    413. D(H  50,C  16,C  15,H  49)     -0.6888         0.027328   
    414. D(C  17,C  16,C  15,H  49)    179.7852         0.027328   
    415. D(C  17,C  16,C  15,C  14)     -0.3724         0.027328   
    416. D(H  50,C  16,C  15,C  14)    179.1536         0.027328   
    417. D(C  16,C  17,C  12,C  13)      1.0969         0.025299   
    418. D(C  16,C  17,C  12,N   4)   -179.6943         0.025299   
    419. D(C  16,C  17,C  12,Ni  3)   -138.4832         0.025299   
    420. D(H  51,C  17,C  16,H  50)     -1.4502         0.030086   
    421. D(H  51,C  17,C  16,C  15)    178.0767         0.030086   
    422. D(C  12,C  17,C  16,H  50)   -179.6682         0.030086   
    423. D(C  12,C  17,C  16,C  15)     -0.1413         0.030086   
    424. D(H  51,C  17,C  12,N   4)      2.0224         0.025299   
    425. D(H  51,C  17,C  12,Ni  3)     43.2336         0.025299   
    426. D(N  23,C  19,C  18,H  52)    -59.8786         0.013198   
    427. D(C  20,C  19,C  18,H  54)    160.7572         0.013198   
    428. D(C  20,C  19,C  18,H  52)     39.7171         0.013198   
    429. D(Ni  3,C  19,C  18,H  54)     -0.7287         0.013198   
    430. D(Ni  3,C  19,C  18,H  53)    118.3052         0.013198   
    431. D(Ni  3,C  19,C  18,H  52)   -121.7687         0.013198   
    432. D(C  20,C  19,Ni  3,C   5)    143.6873         0.010000   
    433. D(C  20,C  19,Ni  3,N   4)    102.0727         0.010000   
    434. D(C  20,C  19,Ni  3,O   2)    -66.0334         0.010000   
    435. D(C  20,C  19,Ni  3,C   1)    -80.2482         0.010000   
    436. D(C  18,C  19,Ni  3,H  74)      0.6769         0.010000   
    437. D(C  18,C  19,Ni  3,N  32)    -83.8784         0.010000   
    438. D(C  18,C  19,Ni  3,N  23)     85.8087         0.010000   
    439. D(C  18,C  19,Ni  3,C  21)    126.8421         0.010000   
    440. D(C  18,C  19,Ni  3,C  12)   -130.4432         0.010000   
    441. D(C  18,C  19,Ni  3,C   5)    -53.1469         0.010000   
    442. D(C  20,C  19,C  18,H  53)    -80.2090         0.013198   
    443. D(C  18,C  19,Ni  3,N   4)    -94.7615         0.010000   
    444. D(C  18,C  19,Ni  3,C   1)     82.9176         0.010000   
    445. D(C  18,C  19,Ni  3,O   2)     97.1324         0.010000   
    446. D(C  24,C  20,C  19,N  23)    121.3967         0.010000   
    447. D(C  24,C  20,C  19,C  18)      3.6571         0.010000   
    448. D(C  24,C  20,C  19,Ni  3)    172.1678         0.010000   
    449. D(C  21,C  20,C  19,N  32)    102.3613         0.010000   
    450. D(C  21,C  20,C  19,N  23)     -0.9670         0.010000   
    451. D(C  21,C  20,C  19,C  18)   -118.7066         0.010000   
    452. D(C  21,C  20,C  19,Ni  3)     49.8041         0.010000   
    453. D(C  22,C  21,C  20,H  55)    -72.4168         0.013752   
    454. D(C  22,C  21,C  20,C  24)     56.9369         0.013752   
    455. D(C  22,C  21,C  20,C  19)    179.9795         0.013752   
    456. D(Ni  3,C  21,C  20,C  24)   -167.5577         0.013752   
    457. D(Ni  3,C  21,C  20,C  19)    -44.5151         0.013752   
    458. D(C  22,C  21,Ni  3,N   4)     67.7221         0.010000   
    459. D(C  22,C  21,Ni  3,O   2)    -16.8815         0.010000   
    460. D(C  22,C  21,Ni  3,C   1)    -11.6708         0.010000   
    461. D(C  20,C  21,Ni  3,H  74)    100.3878         0.010000   
    462. D(C  20,C  21,Ni  3,N  32)     20.2584         0.010000   
    463. D(C  20,C  21,Ni  3,N  23)     97.0972         0.010000   
    464. D(C  20,C  21,Ni  3,C  19)     38.6431         0.010000   
    465. D(C  20,C  21,Ni  3,C  12)    -72.2783         0.010000   
    466. D(Ni  3,C  21,C  20,H  55)     63.0886         0.013752   
    467. D(C  20,C  21,Ni  3,C   5)   -141.3649         0.010000   
    468. D(C  20,C  21,Ni  3,N   4)    -76.2177         0.010000   
    469. D(C  20,C  21,Ni  3,O   2)   -160.8213         0.010000   
    470. D(C  20,C  21,Ni  3,C   1)   -155.6106         0.010000   
    471. D(H  57,C  22,C  21,N  23)    134.9228         0.016441   
    472. D(H  57,C  22,C  21,C  20)    -43.6015         0.016441   
    473. D(H  57,C  22,C  21,Ni  3)   -171.7564         0.016441   
    474. D(H  56,C  22,C  21,N  23)   -106.7951         0.016441   
    475. D(H  56,C  22,C  21,C  20)     74.6805         0.016441   
    476. D(H  56,C  22,C  21,Ni  3)    -53.4743         0.016441   
    477. D(C  19,N  23,C  21,C  22)    179.9227         0.055009   
    478. D(C  19,N  23,C  21,C  20)     -1.1903         0.055009   
    479. D(C  19,N  23,C  21,Ni  3)     87.9168         0.055009   
    480. D(Ni  3,N  23,C  21,C  22)     92.0059         0.055009   
    481. D(Ni  3,N  23,C  21,C  20)    -89.1071         0.055009   
    482. D(C  21,N  23,C  19,C  20)      1.1047         0.011259   
    483. D(C  21,N  23,C  19,C  18)    118.6585         0.011259   
    484. D(C  21,N  23,C  19,Ni  3)   -104.7434         0.011259   
    485. D(Ni  3,N  23,C  19,C  20)    105.8481         0.011259   
    486. D(Ni  3,N  23,C  19,C  18)   -136.5981         0.011259   
    487. D(C  21,N  23,N   4,C  12)     12.8205         0.010000   
    488. D(C  21,N  23,N   4,C   5)   -116.5842         0.010000   
    489. D(C  19,N  23,N   4,C  12)    -78.4108         0.010000   
    490. D(C  19,N  23,N   4,C   5)    152.1845         0.010000   
    491. D(C  21,N  23,Ni  3,C  19)     91.6610         0.010000   
    492. D(C  21,N  23,Ni  3,C  12)     18.1892         0.010000   
    493. D(C  21,N  23,Ni  3,C   5)   -118.2163         0.010000   
    494. D(Ni  3,N  23,C  19,N  32)     -8.3216         0.011259   
    495. D(C  21,N  23,Ni  3,O   2)    -80.6830         0.010000   
    496. D(C  21,N  23,Ni  3,C   1)    -89.4133         0.010000   
    497. D(C  19,N  23,Ni  3,H  74)     91.3648         0.010000   
    498. D(C  21,N  23,C  19,N  32)   -113.0650         0.011259   
    499. D(C  19,N  23,Ni  3,N  32)      6.4522         0.010000   
    500. D(C  19,N  23,Ni  3,C  21)    -91.6610         0.010000   
    501. D(C  19,N  23,Ni  3,C  12)    -73.4717         0.010000   
    502. D(C  19,N  23,Ni  3,C   5)    150.1228         0.010000   
    503. D(C  19,N  23,Ni  3,O   2)   -172.3439         0.010000   
    504. D(C  19,N  23,Ni  3,C   1)    178.9257         0.010000   
    505. D(C  30,C  24,C  20,C  21)   -148.1700         0.012552   
    506. D(C  30,C  24,C  20,C  19)    110.5407         0.012552   
    507. D(C  25,C  24,C  20,H  55)    160.8976         0.012552   
    508. D(C  25,C  24,C  20,C  21)     31.4526         0.012552   
    509. D(C  25,C  24,C  20,C  19)    -69.8367         0.012552   
    510. D(C  27,C  25,C  24,C  30)     -1.7982         0.024864   
    511. D(C  27,C  25,C  24,C  20)    178.5820         0.024864   
    512. D(C  26,C  25,C  24,C  30)    176.4904         0.024864   
    513. D(C  26,C  25,C  24,C  20)     -3.1294         0.024864   
    514. D(H  61,C  26,C  25,C  24)    133.0712         0.012399   
    515. D(H  60,C  26,C  25,C  27)   -170.3252         0.012399   
    516. D(H  60,C  26,C  25,C  24)     11.3205         0.012399   
    517. D(H  59,C  26,C  25,C  27)     68.5467         0.012399   
    518. D(H  59,C  26,C  25,C  24)   -109.8077         0.012399   
    519. D(H  62,C  27,C  25,C  26)      1.7318         0.026465   
    520. D(H  62,C  27,C  25,C  24)   -179.8061         0.026465   
    521. D(C  28,C  27,C  25,C  26)   -178.0539         0.026465   
    522. D(C  28,C  27,C  25,C  24)      0.4082         0.026465   
    523. D(H  63,C  28,C  27,H  62)      0.5102         0.029866   
    524. D(H  63,C  28,C  27,C  25)   -179.7067         0.029866   
    525. D(C  29,C  28,C  27,H  62)   -178.8544         0.029866   
    526. D(C  29,C  28,C  27,C  25)      0.9287         0.029866   
    527. D(H  64,C  29,C  28,H  63)     -0.4817         0.028884   
    528. D(H  64,C  29,C  28,C  27)    178.8830         0.028884   
    529. D(C  30,C  29,C  28,H  63)    179.7846         0.028884   
    530. D(C  30,C  29,C  28,C  27)     -0.8507         0.028884   
    531. D(C  31,C  30,C  29,H  64)     -1.2852         0.027802   
    532. D(C  31,C  30,C  29,C  28)    178.4494         0.027802   
    533. D(C  24,C  30,C  29,H  64)    179.7069         0.027802   
    534. D(C  24,C  30,C  29,C  28)     -0.5585         0.027802   
    535. D(C  31,C  30,C  24,C  25)   -177.0813         0.023785   
    536. D(C  31,C  30,C  24,C  20)      2.5573         0.023785   
    537. D(C  29,C  30,C  24,C  25)      1.8801         0.023785   
    538. D(C  29,C  30,C  24,C  20)   -178.4813         0.023785   
    539. D(H  67,C  31,C  30,C  24)   -179.7167         0.012753   
    540. D(H  66,C  31,C  30,C  29)    121.0791         0.012753   
    541. D(H  66,C  31,C  30,C  24)    -59.9367         0.012753   
    542. D(H  65,C  31,C  30,C  29)   -117.9653         0.012753   
    543. D(H  65,C  31,C  30,C  24)     61.0188         0.012753   
    544. D(C  19,N  32,Ni  3,N   4)    172.4311         0.010000   
    545. D(C  19,N  32,Ni  3,C   1)   -167.8581         0.010000   
    546. D(C  33,N  32,O   2,C   1)    -43.4083         0.010000   
    547. D(C  19,N  32,O   2,C   1)   -168.3647         0.010000   
    548. D(C  33,N  32,C  19,N  23)   -121.0169         0.019711   
    549. D(C  33,N  32,C  19,C  18)      7.6257         0.019711   
    550. D(C  33,N  32,C  19,Ni  3)   -129.4088         0.019711   
    551. D(Ni  3,N  32,C  19,N  23)      8.3919         0.019711   
    552. D(Ni  3,N  32,C  19,C  20)    -83.8654         0.019711   
    553. D(Ni  3,N  32,C  19,C  18)    137.0345         0.019711   
    554. D(C  33,N  32,Ni  3,C  19)    126.0332         0.010000   
    555. D(C  33,N  32,Ni  3,C  12)    -91.0203         0.010000   
    556. D(C  33,N  32,Ni  3,C   5)    -41.5060         0.010000   
    557. D(C  33,N  32,Ni  3,N   4)    -61.5358         0.010000   
    558. D(C  33,N  32,Ni  3,C   1)    -41.8250         0.010000   
    559. D(C  19,N  32,Ni  3,H  74)    -92.0660         0.010000   
    560. D(C  19,N  32,Ni  3,N  23)     -6.7922         0.010000   
    561. D(C  19,N  32,Ni  3,C  21)     22.9131         0.010000   
    562. D(C  33,N  32,C  19,C  20)    146.7258         0.019711   
    563. D(C  19,N  32,Ni  3,C  12)    142.9465         0.010000   
    564. D(C  19,N  32,Ni  3,C   5)   -167.5392         0.010000   
    565. D(C  39,C  33,N  32,C  19)     82.9320         0.021364   
    566. D(C  39,C  33,N  32,Ni  3)    -29.2620         0.021364   
    567. D(C  34,C  33,N  32,C  19)    -98.8183         0.021364   
    568. D(C  34,C  33,N  32,Ni  3)    148.9876         0.021364   
    569. D(C  36,C  34,C  33,C  39)      0.4020         0.023904   
    570. D(C  36,C  34,C  33,N  32)   -177.9369         0.023904   
    571. D(C  35,C  34,C  33,C  39)   -178.2902         0.023904   
    572. D(C  35,C  34,C  33,N  32)      3.3709         0.023904   
    573. D(H  70,C  35,C  34,C  33)   -141.5955         0.012919   
    574. D(H  69,C  35,C  34,C  36)    -79.6518         0.012919   
    575. D(H  69,C  35,C  34,C  33)     99.0527         0.012919   
    576. D(H  68,C  35,C  34,C  36)    160.7504         0.012919   
    577. D(H  68,C  35,C  34,C  33)    -20.5451         0.012919   
    578. D(H  71,C  36,C  34,C  35)     -1.2547         0.027955   
    579. D(H  71,C  36,C  34,C  33)   -179.9664         0.027955   
    580. D(C  37,C  36,C  34,C  35)    178.9177         0.027955   
    581. D(C  37,C  36,C  34,C  33)      0.2061         0.027955   
    582. D(H  72,C  37,C  36,H  71)     -0.2435         0.028951   
    583. D(H  72,C  37,C  36,C  34)    179.5821         0.028951   
    584. D(C  38,C  37,C  36,H  71)    179.7553         0.028951   
    585. D(C  38,C  37,C  36,C  34)     -0.4190         0.028951   
    586. D(H  73,C  38,C  37,H  72)      0.2822         0.028973   
    587. D(H  73,C  38,C  37,C  36)   -179.7166         0.028973   
    588. D(C  39,C  38,C  37,H  72)   -179.9862         0.028973   
    589. D(C  39,C  38,C  37,C  36)      0.0149         0.028973   
    590. D(C  40,C  39,C  38,H  73)      1.1344         0.027518   
    591. D(C  40,C  39,C  38,C  37)   -178.5997         0.027518   
    592. D(C  33,C  39,C  38,H  73)   -179.6714         0.027518   
    593. D(C  33,C  39,C  38,C  37)      0.5945         0.027518   
    594. D(C  40,C  39,C  33,C  34)    178.3581         0.023874   
    595. D(C  40,C  39,C  33,N  32)     -3.4125         0.023874   
    596. D(C  38,C  39,C  33,C  34)     -0.7920         0.023874   
    597. D(C  38,C  39,C  33,N  32)    177.4374         0.023874   
    598. D(H  76,C  40,C  39,C  33)    136.0648         0.012512   
    599. D(H  75,C  40,C  39,C  38)     74.0518         0.012512   
    600. D(H  75,C  40,C  39,C  33)   -105.1140         0.012512   
    601. D(H  74,C  40,C  39,C  38)   -166.2812         0.012512   
    602. D(H  74,C  40,C  39,C  33)     14.5529         0.012512   
    603. D(Ni  3,H  74,C  40,H  76)   -114.2869         0.102617   
    604. D(Ni  3,H  74,C  40,H  75)    129.1876         0.102617   
    605. D(Ni  3,H  74,C  40,C  39)      7.9959         0.102617   
    606. D(C  40,H  74,Ni  3,N  32)    -29.1733         0.010000   
    607. D(C  40,H  74,Ni  3,N  23)   -107.3214         0.010000   
    608. D(C  40,H  74,Ni  3,C  21)   -108.9652         0.010000   
    609. D(C  40,H  74,Ni  3,C  19)    -67.0501         0.010000   
    610. D(C  40,H  74,Ni  3,C  12)     63.2820         0.010000   
    611. D(C  40,H  74,Ni  3,C   5)     96.2836         0.010000   
    612. D(C  40,H  74,Ni  3,N   4)     69.3136         0.010000   
    613. D(C  40,H  74,Ni  3,O   2)    155.2134         0.010000   
    614. D(C  40,H  74,Ni  3,C   1)    131.2926         0.010000   
    -----------------------------------------------------------------

Number of atoms                         .... 77
Number of degrees of freedom            .... 614


         *************************************************************
         *                GEOMETRY OPTIMIZATION CYCLE   1            *
         *************************************************************
---------------------------------
CARTESIAN COORDINATES (ANGSTROEM)
---------------------------------
  O     -3.723804   -9.951443    0.991951
  C     -3.565759   -8.780944    1.224215
  O     -2.658788   -7.997624    0.866887
  Ni    -2.775065   -6.253872    1.398138
  N     -3.948891   -6.887858    2.685774
  C     -4.686526   -7.954022    2.103075
  C     -5.558873   -8.744029    3.043324
  C     -6.024616   -8.141269    4.209820
  C     -6.862618   -8.827571    5.067905
  C     -7.256329  -10.121842    4.773411
  C     -6.818537  -10.716808    3.603531
  C     -5.982804  -10.031582    2.738830
  C     -3.249934   -7.150620    3.842203
  C     -2.909181   -8.445409    4.282858
  C     -2.193113   -8.617185    5.448381
  C     -1.814137   -7.528496    6.220055
  C     -2.159854   -6.247573    5.810152
  C     -2.866013   -6.057293    4.644151
  C     -1.860503   -2.961190    0.079417
  C     -1.712546   -4.213084    0.918403
  C     -0.246745   -4.515661    1.481776
  C     -0.406541   -5.756062    0.653296
  C      0.489498   -6.904370    0.416883
  N     -1.588753   -5.522449    0.160074
  C      0.903392   -3.571658    1.265872
  C      1.496249   -3.364452    0.013762
  C      1.129667   -4.083400   -1.256876
  C      2.539302   -2.449352   -0.106153
  C      3.010894   -1.745733    0.979898
  C      2.445037   -1.970338    2.220091
  C      1.405992   -2.874368    2.379197
  C      0.870977   -3.086291    3.765814
  N     -2.773917   -4.465711    1.859847
  C     -3.927120   -3.654239    1.829032
  C     -4.007538   -2.603933    2.760093
  C     -2.868674   -2.320114    3.693282
  C     -5.135219   -1.799891    2.806055
  C     -6.196169   -2.014814    1.948091
  C     -6.120890   -3.042385    1.028270
  C     -5.003695   -3.861777    0.948769
  C     -4.999470   -4.933912   -0.105958
  H     -5.322282   -7.555335    1.298032
  H     -5.740561   -7.124936    4.439088
  H     -7.213245   -8.345034    5.968635
  H     -7.906746  -10.659245    5.447798
  H     -7.129848  -11.721356    3.357411
  H     -5.638438  -10.507508    1.834960
  H     -3.171011   -9.309092    3.690835
  H     -1.925085   -9.616334    5.759793
  H     -1.257257   -7.677359    7.132862
  H     -1.880357   -5.395031    6.412614
  H     -3.169665   -5.072921    4.325801
  H     -1.008868   -2.824548   -0.576669
  H     -1.935104   -2.101873    0.741718
  H     -2.765916   -3.021925   -0.518933
  H     -0.315813   -4.769184    2.540776
  H      0.493402   -7.537021    1.305523
  H      1.509419   -6.565527    0.244809
  H      0.128471   -7.496528   -0.420848
  H      1.940659   -4.757514   -1.536432
  H      0.218397   -4.663020   -1.187155
  H      1.018335   -3.362884   -2.066886
  H      2.984665   -2.297781   -1.078937
  H      3.817253   -1.037151    0.865963
  H      2.818986   -1.437581    3.082191
  H      1.010941   -4.118625    4.088130
  H     -0.188100   -2.850112    3.819683
  H      1.397049   -2.444844    4.468570
  H     -2.238331   -3.200311    3.777566
  H     -2.265905   -1.493758    3.313297
  H     -3.238672   -2.039979    4.677499
  H     -5.177168   -0.997417    3.528779
  H     -7.073704   -1.387746    1.995311
  H     -6.943602   -3.216388    0.349073
  H     -4.195824   -5.679878    0.059714
  H     -4.838863   -4.491674   -1.090304
  H     -5.959152   -5.447790   -0.124683

----------------------------
CARTESIAN COORDINATES (A.U.)
----------------------------
  NO LB      ZA    FRAG     MASS         X           Y           Z
   0 O     8.0000    0    15.999   -7.036970  -18.805502    1.874516
   1 C     6.0000    0    12.011   -6.738308  -16.593579    2.313431
   2 O     8.0000    0    15.999   -5.024381  -15.113319    1.638179
   3 Ni   28.0000    0    58.700   -5.244113  -11.818105    2.642098
   4 N     7.0000    0    14.007   -7.462323  -13.016165    5.075377
   5 C     6.0000    0    12.011   -8.856251  -15.030923    3.974236
   6 C     6.0000    0    12.011  -10.504748  -16.523820    5.751049
   7 C     6.0000    0    12.011  -11.384874  -15.384769    7.955407
   8 C     6.0000    0    12.011  -12.968469  -16.681692    9.576953
   9 C     6.0000    0    12.011  -13.712475  -19.127509    9.020440
  10 C     6.0000    0    12.011  -12.885168  -20.251832    6.809687
  11 C     6.0000    0    12.011  -11.305861  -18.956943    5.175639
  12 C     6.0000    0    12.011   -6.141485  -13.512713    7.260711
  13 C     6.0000    0    12.011   -5.497555  -15.959510    8.093429
  14 C     6.0000    0    12.011   -4.144383  -16.284120   10.295948
  15 C     6.0000    0    12.011   -3.428222  -14.226796   11.754200
  16 C     6.0000    0    12.011   -4.081533  -11.806202   10.979596
  17 C     6.0000    0    12.011   -5.415980  -11.446625    8.776174
  18 C     6.0000    0    12.011   -3.515841   -5.595838    0.150076
  19 C     6.0000    0    12.011   -3.236243   -7.961575    1.735530
  20 C     6.0000    0    12.011   -0.466280   -8.533363    2.800151
  21 C     6.0000    0    12.011   -0.768251  -10.877381    1.234551
  22 C     6.0000    0    12.011    0.925017  -13.047368    0.787795
  23 N     7.0000    0    14.007   -3.002308  -10.435916    0.302496
  24 C     6.0000    0    12.011    1.707163   -6.749455    2.392151
  25 C     6.0000    0    12.011    2.827501   -6.357893    0.026006
  26 C     6.0000    0    12.011    2.134761   -7.716508   -2.375151
  27 C     6.0000    0    12.011    4.798585   -4.628604   -0.200600
  28 C     6.0000    0    12.011    5.689765   -3.298957    1.851739
  29 C     6.0000    0    12.011    4.620450   -3.723399    4.195364
  30 C     6.0000    0    12.011    2.656940   -5.431768    4.496031
  31 C     6.0000    0    12.011    1.645908   -5.832245    7.116357
  32 N     7.0000    0    14.007   -5.241943   -8.438971    3.514601
  33 C     6.0000    0    12.011   -7.421181   -6.905511    3.456370
  34 C     6.0000    0    12.011   -7.573149   -4.920720    5.215820
  35 C     6.0000    0    12.011   -5.421008   -4.384380    6.979292
  36 C     6.0000    0    12.011   -9.704158   -3.401301    5.302675
  37 C     6.0000    0    12.011  -11.709062   -3.807447    3.681358
  38 C     6.0000    0    12.011  -11.566806   -5.749274    1.943149
  39 C     6.0000    0    12.011   -9.455613   -7.297701    1.792914
  40 C     6.0000    0    12.011   -9.447629   -9.323742   -0.200232
  41 H     1.0000    0     1.008  -10.057655  -14.277514    2.452925
  42 H     1.0000    0     1.008  -10.848088  -13.464178    8.388661
  43 H     1.0000    0     1.008  -13.631058  -15.769829   11.279086
  44 H     1.0000    0     1.008  -14.941585  -20.143054   10.294846
  45 H     1.0000    0     1.008  -13.473460  -22.150153    6.344587
  46 H     1.0000    0     1.008  -10.655104  -19.856312    3.467572
  47 H     1.0000    0     1.008   -5.992342  -17.591634    6.974667
  48 H     1.0000    0     1.008   -3.637883  -18.172238   10.884431
  49 H     1.0000    0     1.008   -2.375871  -14.508106   13.479156
  50 H     1.0000    0     1.008   -3.553360  -10.195131   12.118084
  51 H     1.0000    0     1.008   -5.989799   -9.586431    8.174579
  52 H     1.0000    0     1.008   -1.906484   -5.337622   -1.089746
  53 H     1.0000    0     1.008   -3.656817   -3.971964    1.401644
  54 H     1.0000    0     1.008   -5.226824   -5.710611   -0.980641
  55 H     1.0000    0     1.008   -0.596800   -9.012452    4.801371
  56 H     1.0000    0     1.008    0.932395  -14.242906    2.467081
  57 H     1.0000    0     1.008    2.852389  -12.407048    0.462622
  58 H     1.0000    0     1.008    0.242775  -14.166385   -0.795287
  59 H     1.0000    0     1.008    3.667314   -8.990399   -2.903436
  60 H     1.0000    0     1.008    0.412711   -8.811831   -2.243398
  61 H     1.0000    0     1.008    1.924374   -6.354930   -3.905848
  62 H     1.0000    0     1.008    5.640199   -4.342177   -2.038895
  63 H     1.0000    0     1.008    7.213563   -1.959931    1.636433
  64 H     1.0000    0     1.008    5.327112   -2.716634    5.824497
  65 H     1.0000    0     1.008    1.910402   -7.783073    7.725446
  66 H     1.0000    0     1.008   -0.355457   -5.385931    7.218155
  67 H     1.0000    0     1.008    2.640040   -4.620086    8.444374
  68 H     1.0000    0     1.008   -4.229833   -6.047711    7.138565
  69 H     1.0000    0     1.008   -4.281940   -2.822794    6.261224
  70 H     1.0000    0     1.008   -6.120203   -3.855002    8.839192
  71 H     1.0000    0     1.008   -9.783430   -1.884845    6.668426
  72 H     1.0000    0     1.008  -13.367363   -2.622460    3.770591
  73 H     1.0000    0     1.008  -13.121506   -6.078092    0.659652
  74 H     1.0000    0     1.008   -7.928958  -10.733414    0.112843
  75 H     1.0000    0     1.008   -9.144126   -8.488034   -2.060376
  76 H     1.0000    0     1.008  -11.261165  -10.294831   -0.235617

--------------------------------
INTERNAL COORDINATES (ANGSTROEM)
--------------------------------
 O      0   0   0     0.000000000000     0.00000000     0.00000000
 C      1   0   0     1.203741125293     0.00000000     0.00000000
 O      2   1   0     1.250547846676   130.47926227     0.00000000
 Ni     3   2   1     1.826586708381   117.95007386   178.84050150
 N      4   3   2     1.854133812584    85.17329941    18.98795691
 C      5   4   3     1.421389880618   107.47697284   324.83514997
 C      6   5   4     1.506375959201   115.97770980   171.41997011
 C      7   6   5     1.393179485086   119.29555727    25.33064037
 C      8   7   6     1.381871070119   120.51591977   177.83175249
 C      9   8   7     1.384511642782   120.30762694   359.60170267
 C     10   9   8     1.383569872041   119.46341536   359.12967289
 C     11  10   9     1.384085307257   120.42579679     0.64826162
 C      5   4   3     1.376558312798   109.10064783    93.48994487
 C     13   5   4     1.409527577082   124.10617519   255.59300249
 C     14  13   5     1.378660305633   120.28570351   179.27940841
 C     15  14  13     1.387208459307   120.95670445     1.09678986
 C     16  15  14     1.388634021413   119.45316165   359.89191505
 C     17  16  15     1.376381249393   120.35258068   359.62757620
 C      4   3   2     3.662950106241   137.52292164   212.81670476
 C     19   4   3     1.514274535638    23.33121862   260.76430676
 C     20  19   4     1.599223108156   116.17768344   161.48581199
 C     21  20  19     1.500169494696    82.19856382   241.29336359
 C     22  21  20     1.475597593843   131.85471158   179.97946813
 N     22  21  20     1.302101450731    99.06500358     1.13958717
 C     21  20  19     1.503519644033   122.12462971     3.65707402
 C     25  21  20     1.400783067068   123.02395846   290.16329816
 C     26  25  21     1.505253970754   125.50819187   356.87062389
 C     26  25  21     1.392748066965   119.41414256   178.58204977
 C     28  26  25     1.377310962066   121.61434081     0.40823040
 C     29  28  26     1.381564413165   118.98299038     0.92874382
 C     30  29  28     1.386434085040   121.06262717   359.14930400
 C     31  30  29     1.501285819837   117.71773947   178.44936522
 N     20  19   4     1.441057114033   115.78078561   299.81485259
 C     33  20  19     1.410430264217   119.14789083     7.62565984
 C     34  33  20     1.405874935434   117.52428807   261.18167567
 C     35  34  33     1.499468620871   120.67186178     3.37089491
 C     35  34  33     1.385734635841   120.13200878   182.06313454
 C     37  35  34     1.381270800287   120.94242770     0.20608277
 C     38  37  35     1.381173327256   119.18034050   359.58097766
 C     39  38  37     1.387749374595   121.42033655     0.00000000
 C     40  39  38     1.503974851312   117.60331710   181.40031014
 H      6   5   4     1.100559515589   109.14314732   293.86957081
 H      8   7   6     1.079899914686   119.80236600   358.71300292
 H      9   8   7     1.080322073457   119.51943168   179.92719830
 H     10   9   8     1.080112070142   120.23496281   179.64348179
 H     11  10   9     1.080095494586   120.09387944   180.79882031
 H     12  11  10     1.077995582705   119.87767143   179.33967762
 H     14  13   5     1.079349112159   120.32685667     1.78863998
 H     15  14  13     1.080331044971   119.19520171   181.16398192
 H     16  15  14     1.079579615600   120.20196578   179.73451104
 H     17  16  15     1.080697411960   119.91698623   179.15359288
 H     18  17  16     1.078211247385   121.38803788   178.07674701
 H     19   4   3     1.083698320007   121.83767119   329.59689999
 H     19   4   3     1.087489600084   118.28934316   189.60606823
 H     19   4   3     1.086960975976    86.55886631    80.07787217
 H     21  20  19     1.091111955829   109.13855754   133.07407799
 H     23  22  21     1.090845350459   108.84346181    74.68051705
 H     23  22  21     1.088422200419   110.61486264   316.39845163
 H     23  22  21     1.087559111062   110.21527797   193.23534782
 H     27  26  25     1.091003788351   109.29220382   250.19233341
 H     27  26  25     1.082235360326   113.98428459    11.32048462
 H     27  26  25     1.089795540723   109.66478840   133.07121603
 H     28  26  25     1.080569609264   118.57739075   180.19393884
 H     29  28  26     1.079483428233   120.52258409   180.29329124
 H     30  29  28     1.080224183052   119.63313640   178.88304084
 H     32  31  30     1.090500349706   111.15446181   242.03468445
 H     32  31  30     1.086428313848   111.25434440   121.07912772
 H     32  31  30     1.087231345450   109.95514138     1.29918857
 H     36  35  34     1.085901859799   109.61881017   339.45493368
 H     36  35  34     1.091138536723   110.25439778    99.05270464
 H     36  35  34     1.088143943290   110.69428785   218.40453718
 H     37  35  34     1.080765570997   118.98550189   180.03360067
 H     38  37  35     1.079588662987   120.45064713   179.58214785
 H     39  38  37     1.080944329631   119.78404554   180.28340671
 H     41  40  39     1.108945164585   112.13546776   193.71875984
 H     41  40  39     1.091011505351   110.13200629    74.05180562
 H     41  40  39     1.088765707410   110.24564536   315.23064888

---------------------------
INTERNAL COORDINATES (A.U.)
---------------------------
 O      0   0   0     0.000000000000     0.00000000     0.00000000
 C      1   0   0     2.274741062942     0.00000000     0.00000000
 O      2   1   0     2.363192947582   130.47926227     0.00000000
 Ni     3   2   1     3.451748638701   117.95007386   178.84050150
 N      4   3   2     3.503805121427    85.17329941    18.98795691
 C      5   4   3     2.686037603894   107.47697284   324.83514997
 C      6   5   4     2.846638017613   115.97770980   171.41997011
 C      7   6   5     2.632727682210   119.29555727    25.33064037
 C      8   7   6     2.611357874914   120.51591977   177.83175249
 C      9   8   7     2.616347834083   120.30762694   359.60170267
 C     10   9   8     2.614568145302   119.46341536   359.12967289
 C     11  10   9     2.615542176701   120.42579679     0.64826162
 C      5   4   3     2.601318218561   109.10064783    93.48994487
 C     13   5   4     2.663621098895   124.10617519   255.59300249
 C     14  13   5     2.605290409355   120.28570351   179.27940841
 C     15  14  13     2.621444078749   120.95670445     1.09678986
 C     16  15  14     2.624138000717   119.45316165   359.89191505
 C     17  16  15     2.600983617218   120.35258068   359.62757620
 C      4   3   2     6.921972543013   137.52292164   212.81670476
 C     19   4   3     2.861564163926    23.33121862   260.76430676
 C     20  19   4     3.022093701452   116.17768344   161.48581199
 C     21  20  19     2.834909499439    82.19856382   241.29336359
 C     22  21  20     2.788475336236   131.85471158   179.97946813
 N     22  21  20     2.460615140464    99.06500358     1.13958717
 C     21  20  19     2.841240364194   122.12462971     3.65707402
 C     25  21  20     2.647096369793   123.02395846   290.16329816
 C     26  25  21     2.844517766723   125.50819187   356.87062389
 C     26  25  21     2.631912420112   119.41414256   178.58204977
 C     28  26  25     2.602740519552   121.61434081     0.40823040
 C     29  28  26     2.610778377253   118.98299038     0.92874382
 C     30  29  28     2.619980723459   121.06262717   359.14930400
 C     31  30  29     2.837019048231   117.71773947   178.44936522
 N     20  19   4     2.723203288862   115.78078561   299.81485259
 C     33  20  19     2.665326930363   119.14789083     7.62565984
 C     34  33  20     2.656718606514   117.52428807   261.18167567
 C     35  34  33     2.833585039856   120.67186178     3.37089491
 C     35  34  33     2.618658956028   120.13200878   182.06313454
 C     37  35  34     2.610223529324   120.94242770     0.20608277
 C     38  37  35     2.610039331990   119.18034050   359.58097766
 C     39  38  37     2.622466260506   121.42033655     0.00000000
 C     40  39  38     2.842100581285   117.60331710   181.40031014
 H      6   5   4     2.079756078545   109.14314732   293.86957081
 H      8   7   6     2.040715090801   119.80236600   358.71300292
 H      9   8   7     2.041512855263   119.51943168   179.92719830
 H     10   9   8     2.041116006512   120.23496281   179.64348179
 H     11  10   9     2.041084683250   120.09387944   180.79882031
 H     12  11  10     2.037116424890   119.87767143   179.33967762
 H     14  13   5     2.039674224871   120.32685667     1.78863998
 H     15  14  13     2.041529808969   119.19520171   181.16398192
 H     16  15  14     2.040109813247   120.20196578   179.73451104
 H     17  16  15     2.042222142242   119.91698623   179.15359288
 H     18  17  16     2.037523972072   121.38803788   178.07674701
 H     19   4   3     2.047893036603   121.83767119   329.59689999
 H     19   4   3     2.055057517646   118.28934316   189.60606823
 H     19   4   3     2.054058562854    86.55886631    80.07787217
 H     21  20  19     2.061902777964   109.13855754   133.07407799
 H     23  22  21     2.061398966828   108.84346181    74.68051705
 H     23  22  21     2.056819876873   110.61486264   316.39845163
 H     23  22  21     2.055188874358   110.21527797   193.23534782
 H     27  26  25     2.061698371054   109.29220382   250.19233341
 H     27  26  25     2.045128443463   113.98428459    11.32048462
 H     27  26  25     2.059415113935   109.66478840   133.07121603
 H     28  26  25     2.041980630148   118.57739075   180.19393884
 H     29  28  26     2.039928045467   120.52258409   180.29329124
 H     30  29  28     2.041327869207   119.63313640   178.88304084
 H     32  31  30     2.060747009889   111.15446181   242.03468445
 H     32  31  30     2.053051977311   111.25434440   121.07912772
 H     32  31  30     2.054569487115   109.95514138     1.29918857
 H     36  35  34     2.052057123335   109.61881017   339.45493368
 H     36  35  34     2.061953008574   110.25439778    99.05270464
 H     36  35  34     2.056294047103   110.69428785   218.40453718
 H     37  35  34     2.042350944156   118.98550189   180.03360067
 H     38  37  35     2.040126910331   120.45064713   179.58214785
 H     39  38  37     2.042688749018   119.78404554   180.28340671
 H     41  40  39     2.095602658601   112.13546776   193.71875984
 H     41  40  39     2.061712954071   110.13200629    74.05180562
 H     41  40  39     2.057469011011   110.24564536   315.23064888

---------------------
BASIS SET INFORMATION
---------------------
There are 5 groups of distinct atoms

 Group   1 Type O   : 11s6p2d contracted to 5s3p2d pattern {62111/411/11}
 Group   2 Type C   : 11s6p1d contracted to 5s3p1d pattern {62111/411/1}
 Group   3 Type Ni  : 17s11p6d contracted to 6s4p3d pattern {842111/6311/411}
 Group   4 Type N   : 11s6p2d contracted to 5s3p2d pattern {62111/411/11}
 Group   5 Type H   : 4s1p contracted to 2s1p pattern {31/1}

Atom   0O    basis set group =>   1
Atom   1C    basis set group =>   2
Atom   2O    basis set group =>   1
Atom   3Ni   basis set group =>   3
Atom   4N    basis set group =>   4
Atom   5C    basis set group =>   2
Atom   6C    basis set group =>   2
Atom   7C    basis set group =>   2
Atom   8C    basis set group =>   2
Atom   9C    basis set group =>   2
Atom  10C    basis set group =>   2
Atom  11C    basis set group =>   2
Atom  12C    basis set group =>   2
Atom  13C    basis set group =>   2
Atom  14C    basis set group =>   2
Atom  15C    basis set group =>   2
Atom  16C    basis set group =>   2
Atom  17C    basis set group =>   2
Atom  18C    basis set group =>   2
Atom  19C    basis set group =>   2
Atom  20C    basis set group =>   2
Atom  21C    basis set group =>   2
Atom  22C    basis set group =>   2
Atom  23N    basis set group =>   4
Atom  24C    basis set group =>   2
Atom  25C    basis set group =>   2
Atom  26C    basis set group =>   2
Atom  27C    basis set group =>   2
Atom  28C    basis set group =>   2
Atom  29C    basis set group =>   2
Atom  30C    basis set group =>   2
Atom  31C    basis set group =>   2
Atom  32N    basis set group =>   4
Atom  33C    basis set group =>   2
Atom  34C    basis set group =>   2
Atom  35C    basis set group =>   2
Atom  36C    basis set group =>   2
Atom  37C    basis set group =>   2
Atom  38C    basis set group =>   2
Atom  39C    basis set group =>   2
Atom  40C    basis set group =>   2
Atom  41H    basis set group =>   5
Atom  42H    basis set group =>   5
Atom  43H    basis set group =>   5
Atom  44H    basis set group =>   5
Atom  45H    basis set group =>   5
Atom  46H    basis set group =>   5
Atom  47H    basis set group =>   5
Atom  48H    basis set group =>   5
Atom  49H    basis set group =>   5
Atom  50H    basis set group =>   5
Atom  51H    basis set group =>   5
Atom  52H    basis set group =>   5
Atom  53H    basis set group =>   5
Atom  54H    basis set group =>   5
Atom  55H    basis set group =>   5
Atom  56H    basis set group =>   5
Atom  57H    basis set group =>   5
Atom  58H    basis set group =>   5
Atom  59H    basis set group =>   5
Atom  60H    basis set group =>   5
Atom  61H    basis set group =>   5
Atom  62H    basis set group =>   5
Atom  63H    basis set group =>   5
Atom  64H    basis set group =>   5
Atom  65H    basis set group =>   5
Atom  66H    basis set group =>   5
Atom  67H    basis set group =>   5
Atom  68H    basis set group =>   5
Atom  69H    basis set group =>   5
Atom  70H    basis set group =>   5
Atom  71H    basis set group =>   5
Atom  72H    basis set group =>   5
Atom  73H    basis set group =>   5
Atom  74H    basis set group =>   5
Atom  75H    basis set group =>   5
Atom  76H    basis set group =>   5
---------------------------------
AUXILIARY/J BASIS SET INFORMATION
---------------------------------
There are 5 groups of distinct atoms

 Group   1 Type O   : 8s3p3d contracted to 6s3p3d pattern {311111/111/111}
 Group   2 Type C   : 8s3p3d contracted to 6s3p3d pattern {311111/111/111}
 Group   3 Type Ni  : 19s5p5d3f3g contracted to 8s5p5d2f3g pattern {121111111/11111/11111/21/111}
 Group   4 Type N   : 8s3p3d contracted to 6s3p3d pattern {311111/111/111}
 Group   5 Type H   : 5s2p1d contracted to 3s1p1d pattern {311/2/1}

Atom   0O    basis set group =>   1
Atom   1C    basis set group =>   2
Atom   2O    basis set group =>   1
Atom   3Ni   basis set group =>   3
Atom   4N    basis set group =>   4
Atom   5C    basis set group =>   2
Atom   6C    basis set group =>   2
Atom   7C    basis set group =>   2
Atom   8C    basis set group =>   2
Atom   9C    basis set group =>   2
Atom  10C    basis set group =>   2
Atom  11C    basis set group =>   2
Atom  12C    basis set group =>   2
Atom  13C    basis set group =>   2
Atom  14C    basis set group =>   2
Atom  15C    basis set group =>   2
Atom  16C    basis set group =>   2
Atom  17C    basis set group =>   2
Atom  18C    basis set group =>   2
Atom  19C    basis set group =>   2
Atom  20C    basis set group =>   2
Atom  21C    basis set group =>   2
Atom  22C    basis set group =>   2
Atom  23N    basis set group =>   4
Atom  24C    basis set group =>   2
Atom  25C    basis set group =>   2
Atom  26C    basis set group =>   2
Atom  27C    basis set group =>   2
Atom  28C    basis set group =>   2
Atom  29C    basis set group =>   2
Atom  30C    basis set group =>   2
Atom  31C    basis set group =>   2
Atom  32N    basis set group =>   4
Atom  33C    basis set group =>   2
Atom  34C    basis set group =>   2
Atom  35C    basis set group =>   2
Atom  36C    basis set group =>   2
Atom  37C    basis set group =>   2
Atom  38C    basis set group =>   2
Atom  39C    basis set group =>   2
Atom  40C    basis set group =>   2
Atom  41H    basis set group =>   5
Atom  42H    basis set group =>   5
Atom  43H    basis set group =>   5
Atom  44H    basis set group =>   5
Atom  45H    basis set group =>   5
Atom  46H    basis set group =>   5
Atom  47H    basis set group =>   5
Atom  48H    basis set group =>   5
Atom  49H    basis set group =>   5
Atom  50H    basis set group =>   5
Atom  51H    basis set group =>   5
Atom  52H    basis set group =>   5
Atom  53H    basis set group =>   5
Atom  54H    basis set group =>   5
Atom  55H    basis set group =>   5
Atom  56H    basis set group =>   5
Atom  57H    basis set group =>   5
Atom  58H    basis set group =>   5
Atom  59H    basis set group =>   5
Atom  60H    basis set group =>   5
Atom  61H    basis set group =>   5
Atom  62H    basis set group =>   5
Atom  63H    basis set group =>   5
Atom  64H    basis set group =>   5
Atom  65H    basis set group =>   5
Atom  66H    basis set group =>   5
Atom  67H    basis set group =>   5
Atom  68H    basis set group =>   5
Atom  69H    basis set group =>   5
Atom  70H    basis set group =>   5
Atom  71H    basis set group =>   5
Atom  72H    basis set group =>   5
Atom  73H    basis set group =>   5
Atom  74H    basis set group =>   5
Atom  75H    basis set group =>   5
Atom  76H    basis set group =>   5
[file orca_main/main_util_tools.cpp, line 749]: Error : multiplicity (1) is odd and number of electrons (311) is odd -> impossible

