
                                 *****************
                                 * O   R   C   A *
                                 *****************

                                            #,                                       
                                            ###                                      
                                            ####                                     
                                            #####                                    
                                            ######                                   
                                           ########,                                 
                                     ,,################,,,,,                         
                               ,,#################################,,                 
                          ,,##########################################,,             
                       ,#########################################, ''#####,          
                    ,#############################################,,   '####,        
                  ,##################################################,,,,####,       
                ,###########''''           ''''###############################       
              ,#####''   ,,,,##########,,,,          '''####'''          '####       
            ,##' ,,,,###########################,,,                        '##       
           ' ,,###''''                  '''############,,,                           
         ,,##''                                '''############,,,,        ,,,,,,###''
      ,#''                                            '''#######################'''  
     '                                                          ''''####''''         
             ,#######,   #######,   ,#######,      ##                                
            ,#'     '#,  ##    ##  ,#'     '#,    #''#        ,####,    ,#,          
            ##       ##  ##   ,#'  ##            #'  '#       #'       ,# #          
            ##       ##  #######   ##           ,######,      #####,      #          
            '#,     ,#'  ##    ##  '#,     ,#' ,#      #,     #,   #      #          
             '#######'   ##     ##  '#######'  #'      '#     '####' #    #          



                #########################################################
                #                        -***-                          #
                #          Department of theory and spectroscopy        #
                #                                                       #
                #                      Frank Neese                      #
                #                                                       #
                #     Directorship, Architecture, Infrastructure        #
                #                    SHARK, DRIVERS                     #
                #        Core code/Algorithms in most modules           #
                #                                                       #
                #        Max Planck Institute fuer Kohlenforschung      #
                #                Kaiser Wilhelm Platz 1                 #
                #                 D-45470 Muelheim/Ruhr                 #
                #                      Germany                          #
                #                                                       #
                #                  All rights reserved                  #
                #                        -***-                          #
                #########################################################


                         Program Version 6.1.0  -  RELEASE   -
                                (GIT: $679e74b$)
                          ($2025-06-10 18:02:51 +0200$)


 With contributions from (in alphabetic order):
[Max-Planck-Institut fuer Kohlenforschung]                               
  Daniel Aravena         : Magnetic Suceptibility                        
  Michael Atanasov       : Ab Initio Ligand Field Theory (pilot matlab implementation)
  Alexander A. Auer      : GIAO ZORA, VPT2 properties, NMR spectrum      
  Ute Becker             : All parallelization in ORCA, NUMFREQ, NUMCALC 
  Giovanni Bistoni       : ED, misc. LED, open-shell LED, HFLD           
  Dmytro Bykov           : pre 5.0 version of the SCF Hessian            
  Marcos Casanova-Páez   : Triplet and SCS-CIS(D). UHF-(DLPNO)-IP/EA/STEOM-CCSD. UHF-CVS-IP/STEOM-CCSD   
  Vijay G. Chilkuri      : MRCI spin determinant printing, contributions to CSF-ICE 
  Pauline Colinet        : FMM embedding                                 
  Dipayan Datta          : RHF DLPNO-CCSD density                        
  Achintya Kumar Dutta   : EOM-CC, STEOM-CC                              
  Nicolas Foglia         : Exact transition moments, OPA infrastructure, MCD improvements    
  Dmitry Ganyushin       : Spin-Orbit,Spin-Spin,Magnetic field MRCI      
  Miquel Garcia-Rates    : C-PCM and meta-GGA Hessian, CCSD/C-PCM, Gaussian charge scheme 
  Tiago L. C. Gouveia    : GS-ROHF, GS-ROCIS                             
  Yang Guo               : DLPNO-NEVPT2, F12-NEVPT2, CIM, IAO-localization        
  Andreas Hansen         : Spin unrestricted coupled pair/coupled cluster methods 
  Ingolf Harden          : AUTO-CI MPn and infrastructure                
  Benjamin Helmich-Paris : MC-RPA, TRAH-(SCF,CASSCF), AVAS, COSX integrals, SCF dyn. polar., MC-PDFT, srDFT 
  Lee Huntington         : MR-EOM, pCC                                   
  Robert Izsak           : Overlap fitted RIJCOSX, COSX-SCS-MP3, EOM     
  Riya Kayal             : Wick's Theorem for AUTO-CI, AUTO-CI UHF-CCSDT 
  Emily Kempfer          : AUTO-CI RHF CISDT and CCSDT, approximate NEVPT4
  Christian Kollmar      : KDIIS, OOCD, Brueckner-CCSD(T), CCSD density, CASPT2, CASPT2-K, improved NEVPT2 
  Axel Koslowski         : Symmetry handling                             
  Simone Kossmann        : meta-GGA functionals, TD-DFT gradient, OOMP2, (MP2 Hessian; deprecated post 5.0) 
  Lucas Lang             : DCDCAS, Hyperfine gauge corrections, ICE-SOC+SSC
  Marvin Lechner         : AUTO-CI (C++ implementation), FIC-MRCC        
  Spencer Leger          : CASSCF response                               
  Dagmar Lenk            : GEPOL surface, SMD, ORCA-2-JSON               
  Dimitrios Liakos       : Extrapolation schemes; Compound Job, Property file
  Dimitrios Manganas     : Further ROCIS development; embedding schemes. LFT, Crystal Embedding 
  Dimitrios Pantazis     : SARC Basis sets                               
  Anastasios Papadopoulos: AUTO-CI, single reference methods and gradients 
  Taras Petrenko         : pre 6.0 DFT Hessian and TD-DFT gradient,  ECA, NRVS 
  Petra Pikulova         : Analytic Raman intensities                    
  Peter Pinski           : DLPNO-MP2, DLPNO-MP2 Gradient                 
  Shashank Vittal Rao    : ES-AILFT, MagRelax                            
  Christoph Reimann      : Effective Core Potentials                     
  Marius Retegan         : Local ZFS, SOC                                
  Christoph Riplinger    : Optimizer, TS searches, QM/MM, DLPNO-CCSD(T), (RO)-DLPNO pert. Triples 
  Michael Roemelt        : Original ROCIS implementation, recursive CI coupling coefficients
  Masaaki Saitow         : Open-shell DLPNO-CCSD energy and density      
  Barbara Sandhoefer     : DKH picture change effects                    
  Yorick L. A. Schmerwitz: GMF and freeze-and-release deltaSCF, NEB S-IDPP initial path                    
  Kantharuban Sivalingam : CASSCF convergence/infrastructure, NEVPT2, NEVPT3, NEVPT4(SD), FIC-MRCI and CEPA variants
  Bernardo de Souza      : ESD, SOC TD-DFT                               
  Georgi L. Stoychev     : AutoAux, RI-MP2 NMR, DLPNO-MP2 response, X2C  
  Van Anh Tran           : RI-MP2 g-tensors                              
  Willem Van den Heuvel  : Paramagnetic NMR                              
  Zikuan Wang            : NOTCH, Electric field optimization            
  Frank Wennmohs         : Technical directorship and infrastructure     
  Hang Xu                : AUTO-CI-Response properties                   
                                                                         
[FACCTs GmbH]                                                            
  Markus Bursch, Nicolas Foglia, Miquel Garcia-Rates, Ingolf Harden, Hagen Neugebauer, Anastasios Papadopoulos, 
  Christoph Riplinger, Bernardo de Souza, Georgi L. Stoychev                                                    
                                                                 
  APM, various basis sets, CI-OPT, improved COSX, DLPNO-Multilevel,           
  DOCKER, DRACO, updates on ESD, Fragmentator, GOAT, IRC, LR-CPCM, L-BFGS, MBIS, meta-GGA TD-DFT gradient, ML-optimized integration grids, 
  MM, NACMEs, nearIR, NEB, NEB-TS, NL-DFT gradient (VV10), 2- and 3-layer-ONIOM, interface openCOSMO-RS, QMMM,   
  Crystal-QMMM, RESP, rigid body optimization, SF, symmetry and pop. for TD-DFT, various functionals, SOLVATOR                                   
                                                                         
[Other institutions]                                                     
  V. Asgeirsson          : NEB                                           
  Christoph Bannwarth    : sTDA-DFT, sTD-DFT, PBEh-3c, B97-3c, D3        
  Giovanni Bistoni       : ETS/NOCV, ADLD/ADEX, COVALED                  
  Martin Brehm           : Molecular dynamics                            
  Ronald Cardenas        : ETS/NOCV                                      
  Martina Colucci        : COVALED                                       
  Sebastian Ehlert       : rSCAN, r2SCAN, r2SCAN-3c, D4, dhf basis sets  
  Marvin Friede          : D4 for Fr, Ra, Ac-Lr                          
  Lars Goerigk           : TD-DFT with DH, B97 family of functionals     
  Stefan Grimme          : VdW corrections, initial TS optimization, DFT functionals, gCP, sTDA/sTD-DF 
  Waldemar Hujo          : DFT-NL                                        
  H. Jonsson             : NEB                                           
  Holger Kruse           : gCP                                           
  Marcel Mueller         : wB97X-3c, vDZP basis set                      
  Hagen Neugebauer       : wr2SCAN, Native XTB                           
  Gianluca Regni         : ADLD/ADEX                                     
  Tobias Risthaus        : pre 6.0 range-separated hybrid DFT and stability analysis
  Lukas Wittmann         : regularized MP2, r2SCAN double-hybrids, wr2SCAN        
                                                                         
We gratefully acknowledge several colleagues who have allowed us to      
interface, adapt or use parts of their codes:                            
  Ed Valeev, F. Pavosevic, A. Kumar             : LibInt (2-el integral package), F12 methods 
  Garnet Chan, S. Sharma, J. Yang, R. Olivares  : DMRG                   
  Ulf Ekstrom                                   : XCFun DFT Library      
  Mihaly Kallay                                 : mrcc  (arbitrary order and MRCC methods)
  Frank Weinhold                                : gennbo (NPA and NBO analysis)           
  Simon Mueller                                 : openCOSMO-RS                            
  Christopher J. Cramer and Donald G. Truhlar   : smd solvation model                     
  S Lehtola, MJT Oliveira, MAL Marques          : LibXC Library                           
  Liviu Ungur et al                             : ANISO software                          


 Your calculation uses the libint2 library for the computation of 2-el integrals
 For citations please refer to: http://libint.valeyev.net

 Your ORCA version has been built with support for libXC version: 7.0.0
 For citations please refer to: https://libxc.gitlab.io

 This ORCA versions uses:
   CBLAS   interface :  Fast vector & matrix operations
   LAPACKE interface :  Fast linear algebra routines
   SCALAPACK package :  Parallel linear algebra routines
   Shared memory     :  Shared parallel matrices
   BLAS/LAPACK       :  OpenBLAS 0.3.29  USE64BITINT DYNAMIC_ARCH NO_AFFINITY Cooperlake SINGLE_THREADED
        Core in use  :  Cooperlake
   Copyright (c) 2011-2014, The OpenBLAS Project


  ***********************************
  * Starting time: Tue Jan 27 15:57:46 2026
  * Host name:     node236.cluster
  * Process ID:    2481078
  * Working dir.:  /scratch/56627317
  ***********************************

NOTE: MaxCore=12000 MB was set to SCF,MP2,MDCI,CIPSI,MRCI,RASCI and CIS
      => If you want to overwrite this, your respective input block should be placed after the MaxCore statement
Your calculation utilizes the geometrical counterpoise correction gCP
Please cite in your paper:
H.Kruse, S. Grimme J.Chem.Phys., 136, (2012), 154101 
   

Your calculation utilizes the atom-pairwise dispersion correction
based on EEQ partial charges (D4)


================================================================================

----- Orbital basis set information -----
Your calculation utilizes the basis: def2-mTZVPP
   Stefan Grimme, Andreas Hansen, Sebastian Ehlert, and Jan-Michael Mewes 
   J. Chem. Phys. 154, 064103 (2021). DOI: 10.1063/5.0040021

----- AuxJ basis set information -----
Your calculation utilizes the basis: def2-mTZVPP/J
   Stefan Grimme, Andreas Hansen, Sebastian Ehlert, and Jan-Michael Mewes 
   J. Chem. Phys. 154, 000000 (2021). DOI: 10.1063/5.0040021

================================================================================
                                        WARNINGS
                       Please study these warnings very carefully!
================================================================================



WARNING: SCAN, rSCAN, or r2SCAN functional requested.
  ===> : libXC variant has now been activated.



WARNING: Geometry Optimization
  ===> : Switching off AutoStart
         For restart on a previous wavefunction, please use MOREAD

================================================================================
                                       INPUT FILE
================================================================================
NAME = 2_2_confsstruct_1.inp
|  1> !r2scan-3c opt freq 
|  2> %pal 
|  3> nprocs 8 
|  4> end 
|  5> %maxcore 12000
|  6>  
|  7> * XYZ 0 1 
|  8> O      8.55049600     -0.52823800     -0.68370800
|  9> C      7.66811700     -0.42082900      0.14312600
| 10> O      6.42707100     -0.22383200     -0.15880600
| 11> Ni      5.29557200     -0.48815700      1.23401400
| 12> N      6.70849600      0.02023800      2.32451500
| 13> C      7.93831400     -0.48466000      1.67401400
| 14> C      8.30962600     -1.86623400      2.16735100
| 15> C      8.86612700     -2.82083900      1.32528500
| 16> C      9.16008700     -4.08645900      1.80084500
| 17> C      8.91109300     -4.41507600      3.12218200
| 18> C      8.39251300     -3.45832400      3.97689600
| 19> C      8.10218200     -2.19293600      3.50274400
| 20> C      6.80071300      1.37015400      2.63683300
| 21> C      5.95835400      2.32132300      2.04331000
| 22> C      6.02253000      3.65127800      2.40359500
| 23> C      6.93160700      4.07371300      3.35998900
| 24> C      7.78486700      3.14916500      3.94153800
| 25> C      7.72732100      1.81665400      3.58871300
| 26> C      3.60810600      0.51774000      3.06626700
| 27> N      4.12683600     -0.80165000      2.68213300
| 28> C      2.97974900     -1.58986900      2.18583800
| 29> C      2.89303400     -1.45410400      0.71029600
| 30> N      3.88951800     -0.97521000      0.09979900
| 31> C      3.89662500     -0.91249000     -1.33220800
| 32> C      3.03487600      2.81254600     -1.48165700
| 33> C      1.95308600      2.09077500     -0.73115500
| 34> C      1.73361200      2.43857100      0.61492800
| 35> C      2.45291800      3.48050800      1.26115800
| 36> C      2.21872500      3.80826500      2.56215200
| 37> C      1.24577800      3.12009800      3.31392500
| 38> C      0.53372100      2.11386700      2.73922300
| 39> C      0.75141500      1.74191500      1.38739400
| 40> C      0.03299100      0.70733300      0.80063600
| 41> C      0.21482700      0.37096200     -0.53513300
| 42> C     -0.54503100     -0.67359300     -1.12386300
| 43> C     -0.40191800     -0.99640900     -2.43640300
| 44> C      0.51225000     -0.27847200     -3.23326300
| 45> C      1.26966400      0.71892700     -2.69918500
| 46> C      1.17360200      1.08416900     -1.32773600
| 47> C      4.65552100     -1.41560800      3.92787700
| 48> C      4.93404000     -2.90466000      4.02073200
| 49> C      4.85067900     -3.45668400      5.31984100
| 50> C      4.72809600     -2.67364700      6.50143800
| 51> C      4.63654500     -3.24292600      7.73631100
| 52> C      4.65110200     -4.64163800      7.89274200
| 53> C      4.79968100     -5.43238600      6.79712600
| 54> C      4.92517000     -4.87442600      5.49943100
| 55> C      5.12321700     -5.69625600      4.39687000
| 56> C      5.34550700     -5.16101400      3.13665300
| 57> C      5.64264800     -6.00857100      2.03820200
| 58> C      5.92051900     -5.50071600      0.80904500
| 59> C      5.93431000     -4.10413200      0.62631800
| 60> C      5.62413300     -3.26358100      1.65084600
| 61> C      5.28417900     -3.74121400      2.94428400
| 62> H      8.78343300      0.18949300      1.88024400
| 63> H      9.06826200     -2.56789500      0.29610500
| 64> H      9.58368300     -4.82300800      1.13329400
| 65> H      9.12946100     -5.40831100      3.48714500
| 66> H      8.21078000     -3.69871900      5.01532400
| 67> H      7.71060800     -1.44351000      4.17415600
| 68> H      5.27535600      1.98466700      1.25813200
| 69> H      5.37539100      4.37142100      1.92341000
| 70> H      6.98560900      5.11545500      3.63859100
| 71> H      8.50512400      3.47225500      4.67986300
| 72> H      8.39712600      1.10367800      4.04815000
| 73> H      2.80509700      0.42205500      3.81095000
| 74> H      4.39948600      1.12899300      3.49490700
| 75> H      3.19956000      1.02455100      2.19393600
| 76> H      3.13542100     -2.65011600      2.41655400
| 77> H      2.04142200     -1.28417400      2.66911900
| 78> H      3.15077300      2.45337700     -2.49740400
| 79> H      1.99832300     -1.81124600      0.19658400
| 80> H      2.96897600     -1.29927800     -1.76635000
| 81> H      4.05900000      0.11888100     -1.64208500
| 82> H      4.75334900     -1.48264500     -1.69426600
| 83> H      3.99147900      2.68397400     -0.97420200
| 84> H      2.81788800      3.87931200     -1.52970200
| 85> H      3.19449800      4.03089100      0.70658600
| 86> H      2.77668700      4.60523100      3.02992600
| 87> H      1.07121500      3.40287500      4.34136400
| 88> H     -0.22241800      1.57955300      3.29776200
| 89> H     -0.69461400      0.16495500      1.38931000
| 90> H     -1.25221900     -1.20043300     -0.49820900
| 91> H     -0.98654800     -1.78913300     -2.87903000
| 92> H      0.60615200     -0.52684100     -4.28011600
| 93> H      1.94889500      1.24654100     -3.34918800
| 94> H      5.57637100     -0.87048600      4.16331400
| 95> H      3.91333200     -1.19850000      4.70703400
| 96> H      4.75395900     -1.59726300      6.44428500
| 97> H      4.56173300     -2.61585900      8.61272200
| 98> H      4.56330400     -5.06990600      8.87990800
| 99> H      4.84352500     -6.50787400      6.89166600
|100> H      5.13736000     -6.76877100      4.52975200
|101> H      5.66342000     -7.07433000      2.21558500
|102> H      6.15698200     -6.15106300     -0.01957700
|103> H      6.22034800     -3.69741800     -0.33218300
|104> H      5.71196500     -2.17784300      1.48792900
|105> 
|106> **                         ****END OF INPUT****
================================================================================

                       *****************************
                       * Geometry Optimization Run *
                       *****************************

Geometry optimization settings:
Update method            Update   .... BFGS
Choice of coordinates    CoordSys .... (2022) Redundant Internals
Initial Hessian          InHess   .... Almloef's Model
Max. no of cycles        MaxIter  .... 291

Convergence Tolerances:
Energy Change            TolE     ....  5.0000e-06 Eh
Max. Gradient            TolMAXG  ....  3.0000e-04 Eh/bohr
RMS Gradient             TolRMSG  ....  1.0000e-04 Eh/bohr
Max. Displacement        TolMAXD  ....  4.0000e-03 bohr
RMS Displacement         TolRMSD  ....  2.0000e-03 bohr
Strict Convergence                .... False

------------------------------------------------------------------------------
                        ORCA OPTIMIZATION COORDINATE SETUP
------------------------------------------------------------------------------

The optimization will be done in redundant internal coordinates (2022)
Making redundant internal coordinates   ...  (2022 redundants) done
Evaluating the initial hessian          ...  (Almloef) done
Evaluating the coordinates              ...  done
Calculating the B-matrix                .... done
Calculating the G-matrix                .... done
The number of degrees of freedom        ....  886

    -----------------------------------------------------------------
                    Redundant Internal Coordinates


    -----------------------------------------------------------------
         Definition                    Initial Value    Approx d2E/dq
    -----------------------------------------------------------------
      1. B(C   1,O   0)                  1.2140         1.068268   
      2. B(O   2,C   1)                  1.2923         0.801072   
      3. B(Ni  3,O   2)                  1.8139         1.193304   
      4. B(Ni  3,C   1)                  2.6122         0.070947   
      5. B(N   4,Ni  3)                  1.8558         1.022912   
      6. B(C   5,Ni  3)                  2.6791         0.055482   
      7. B(C   5,N   4)                  1.4800         0.401993   
      8. B(C   5,C   1)                  1.5559         0.339719   
      9. B(C   6,C   5)                  1.5133         0.397248   
     10. B(C   7,C   6)                  1.3893         0.626501   
     11. B(C   8,C   7)                  1.3836         0.639648   
     12. B(C   9,C   8)                  1.3842         0.638329   
     13. B(C  10,C   9)                  1.3838         0.639247   
     14. B(C  11,C   6)                  1.3903         0.624020   
     15. B(C  11,C  10)                  1.3821         0.643093   
     16. B(C  12,N   4)                  1.3886         0.562401   
     17. B(C  12,Ni  3)                  2.7725         0.039373   
     18. B(C  13,C  12)                  1.4023         0.597103   
     19. B(C  14,C  13)                  1.3794         0.649641   
     20. B(C  15,C  14)                  1.3855         0.635252   
     21. B(C  16,C  15)                  1.3860         0.634008   
     22. B(C  17,C  12)                  1.4014         0.599078   
     23. B(C  17,C  16)                  1.3796         0.649054   
     24. B(C  18,Ni  3)                  2.6864         0.054026   
     25. B(N  19,Ni  3)                  1.8871         0.911710   
     26. B(N  19,C  18)                  1.4688         0.418914   
     27. B(C  20,Ni  3)                  2.7355         0.045108   
     28. B(C  20,N  19)                  1.4776         0.405563   
     29. B(C  21,Ni  3)                  2.6419         0.063617   
     30. B(C  21,C  20)                  1.4843         0.441848   
     31. B(N  22,Ni  3)                  1.8710         0.967366   
     32. B(N  22,C  21)                  1.2629         0.892454   
     33. B(C  23,N  22)                  1.4334         0.477131   
     34. B(C  25,C  24)                  1.5015         0.414821   
     35. B(C  26,C  25)                  1.4075         0.585882   
     36. B(C  27,C  26)                  1.4215         0.556533   
     37. B(C  28,C  27)                  1.3619         0.692661   
     38. B(C  29,C  28)                  1.4090         0.582612   
     39. B(C  30,C  29)                  1.3601         0.697396   
     40. B(C  31,C  30)                  1.4189         0.561933   
     41. B(C  31,C  26)                  1.4306         0.538137   
     42. B(C  32,C  31)                  1.3895         0.625889   
     43. B(C  33,C  32)                  1.3894         0.626129   
     44. B(C  34,C  33)                  1.4195         0.560552   
     45. B(C  35,C  34)                  1.3592         0.699619   
     46. B(C  36,C  35)                  1.4093         0.582035   
     47. B(C  37,C  36)                  1.3615         0.693723   
     48. B(C  38,C  37)                  1.4225         0.554484   
     49. B(C  38,C  33)                  1.4339         0.531696   
     50. B(C  38,C  25)                  1.4060         0.589189   
     51. B(C  39,N  19)                  1.4860         0.393225   
     52. B(C  40,C  39)                  1.5177         0.390815   
     53. B(C  41,C  40)                  1.4140         0.572093   
     54. B(C  42,C  41)                  1.4228         0.553881   
     55. B(C  43,C  42)                  1.3629         0.690316   
     56. B(C  44,C  43)                  1.4075         0.585877   
     57. B(C  45,C  44)                  1.3593         0.699354   
     58. B(C  46,C  45)                  1.4181         0.563464   
     59. B(C  46,C  41)                  1.4310         0.537412   
     60. B(C  47,C  46)                  1.3893         0.626311   
     61. B(C  48,C  47)                  1.3871         0.631491   
     62. B(C  49,C  48)                  1.4189         0.561890   
     63. B(C  50,C  49)                  1.3587         0.701036   
     64. B(C  51,C  50)                  1.4086         0.583628   
     65. B(C  52,C  51)                  1.3610         0.694966   
     66. B(C  53,C  52)                  1.4201         0.559392   
     67. B(C  53,C  48)                  1.4341         0.531379   
     68. B(C  53,C  40)                  1.4075         0.585814   
     69. B(H  54,C   5)                  1.1006         0.346394   
     70. B(H  55,C   7)                  1.0789         0.375071   
     71. B(H  56,C   8)                  1.0805         0.372837   
     72. B(H  57,C   9)                  1.0805         0.372941   
     73. B(H  57,C  49)                  3.8233         0.010000   
     74. B(H  58,C  10)                  1.0813         0.371833   
     75. B(H  59,C  11)                  1.0797         0.373979   
     76. B(H  60,C  13)                  1.0938         0.355150   
     77. B(H  60,C  27)                  3.1943         0.010000   
     78. B(H  61,C  14)                  1.0807         0.372577   
     79. B(H  61,C  28)                  3.2695         0.010000   
     80. B(H  61,C  27)                  3.1262         0.010000   
     81. B(H  62,C  15)                  1.0797         0.373981   
     82. B(H  63,C  16)                  1.0809         0.372382   
     83. B(H  64,C  17)                  1.0808         0.372525   
     84. B(H  65,C  30)                  3.0282         0.010000   
     85. B(H  65,C  18)                  1.0993         0.347964   
     86. B(H  65,C  29)                  3.1556         0.010000   
     87. B(H  66,C  18)                  1.0880         0.362816   
     88. B(H  67,C  28)                  2.9743         0.010000   
     89. B(H  67,C  30)                  2.9310         0.010000   
     90. B(H  67,C  31)                  2.6755         0.010000   
     91. B(H  67,C  27)                  2.7312         0.010000   
     92. B(H  67,C  26)                  2.5772         0.010000   
     93. B(H  67,C  18)                  1.0885         0.362153   
     94. B(H  67,C  29)                  3.0762         0.010000   
     95. B(H  68,C  20)                  1.0962         0.352030   
     96. B(H  69,C  20)                  1.0988         0.348583   
     97. B(H  70,C  24)                  1.0836         0.368675   
     98. B(H  71,C  33)                  2.9118         0.010000   
     99. B(H  71,C  21)                  1.0918         0.357768   
    100. B(H  71,C  32)                  3.2513         0.010000   
    101. B(H  71,C  34)                  3.0833         0.010000   
    102. B(H  72,C  37)                  2.7984         0.010000   
    103. B(H  72,C  23)                  1.0948         0.353788   
    104. B(H  72,C  36)                  3.0380         0.010000   
    105. B(H  72,C  38)                  3.0161         0.010000   
    106. B(H  73,C  24)                  2.8862         0.010000   
    107. B(H  73,H  70)                  2.6469         0.010000   
    108. B(H  73,C  23)                  1.0891         0.361307   
    109. B(H  73,C  38)                  3.0588         0.010000   
    110. B(H  73,C  37)                  3.0427         0.010000   
    111. B(H  73,C  25)                  3.0254         0.010000   
    112. B(H  74,C  23)                  1.0909         0.358866   
    113. B(H  75,H  60)                  2.6685         0.010000   
    114. B(H  75,H  73)                  2.6515         0.010000   
    115. B(H  75,C  24)                  1.0905         0.359475   
    116. B(H  76,C  24)                  1.0897         0.360536   
    117. B(H  77,H  60)                  2.9701         0.010000   
    118. B(H  77,H  61)                  2.5205         0.010000   
    119. B(H  77,C  27)                  1.0772         0.377403   
    120. B(H  78,H  61)                  2.8341         0.010000   
    121. B(H  78,C  28)                  1.0795         0.374281   
    122. B(H  79,C  29)                  1.0798         0.373787   
    123. B(H  80,C  30)                  1.0813         0.371799   
    124. B(H  81,C  32)                  1.0817         0.371221   
    125. B(H  82,C  34)                  1.0813         0.371853   
    126. B(H  83,C  35)                  1.0799         0.373751   
    127. B(H  84,C  36)                  1.0800         0.373571   
    128. B(H  85,H  73)                  2.9391         0.010000   
    129. B(H  85,C  37)                  1.0781         0.376233   
    130. B(H  85,H  72)                  3.1666         0.010000   
    131. B(H  86,C  39)                  1.0957         0.352641   
    132. B(H  87,C  39)                  1.0978         0.349986   
    133. B(H  88,C  42)                  1.0782         0.376039   
    134. B(H  89,C  43)                  1.0802         0.373253   
    135. B(H  90,C  44)                  1.0796         0.374072   
    136. B(H  91,C  45)                  1.0805         0.372855   
    137. B(H  92,C  47)                  1.0808         0.372467   
    138. B(H  93,C  49)                  1.0806         0.372726   
    139. B(H  94,C  50)                  1.0796         0.374160   
    140. B(H  95,C  51)                  1.0798         0.373856   
    141. B(H  96,C  52)                  1.1014         0.345330   
    142. B(H  96,Ni  3)                  1.7587         0.312420   
    143. A(O   2,C   1,C   5)          113.7599         0.405494   
    144. A(O   2,C   1,Ni  3)           39.5826         0.345430   
    145. A(O   0,C   1,O   2)          123.5284         0.495811   
    146. A(O   0,C   1,C   5)          122.7039         0.426800   
    147. A(Ni  3,C   1,C   5)           75.2716         0.301929   
    148. A(O   0,C   1,Ni  3)          160.4429         0.362692   
    149. A(C   1,O   2,Ni  3)          113.4176         0.571922   
    150. A(C   5,Ni  3,N  22)          147.2662         0.382051   
    151. A(C  12,Ni  3,N  22)          152.7713         0.360163   
    152. A(C   1,Ni  3,N  19)          152.5291         0.394695   
    153. A(C  18,Ni  3,C  20)           51.8069         0.235399   
    154. A(N   4,Ni  3,C   5)           32.0183         0.385778   
    155. A(C  12,Ni  3,N  19)           93.3993         0.356550   
    156. A(C   5,Ni  3,N  19)          119.0189         0.378147   
    157. A(O   2,Ni  3,N   4)           86.3511         0.679894   
    158. A(C  18,Ni  3,N  19)           31.7649         0.376413   
    159. A(C  12,Ni  3,C  20)          123.6071         0.225282   
    160. A(O   2,Ni  3,C  12)           87.2601         0.373356   
    161. A(C   5,Ni  3,H  96)           75.1666         0.296011   
    162. A(C  12,Ni  3,C  21)          147.0427         0.236311   
    163. A(N  19,Ni  3,N  22)           87.5081         0.637990   
    164. A(N  22,Ni  3,H  96)           90.8794         0.482042   
    165. A(N  19,Ni  3,C  21)           61.8468         0.387241   
    166. A(C   1,Ni  3,C   5)           34.1702         0.252180   
    167. A(C  21,Ni  3,H  96)           83.8374         0.302522   
    168. A(C   1,Ni  3,H  96)           82.5312         0.307858   
    169. A(C   1,Ni  3,C  21)          138.8172         0.257313   
    170. A(C   1,Ni  3,C  18)          147.7490         0.251202   
    171. A(C   5,Ni  3,C  12)           51.7213         0.231819   
    172. A(O   2,Ni  3,C  18)          149.4312         0.394467   
    173. A(N  19,Ni  3,H  96)           82.8906         0.476806   
    174. A(C  20,Ni  3,N  22)           57.9864         0.368639   
    175. A(O   2,Ni  3,C   5)           60.6979         0.396310   
    176. A(O   2,Ni  3,C  20)          148.6480         0.382245   
    177. A(N   4,Ni  3,C  21)          155.3716         0.395112   
    178. A(O   2,Ni  3,H  96)           95.9222         0.501166   
    179. A(C   1,Ni  3,C  12)           72.5993         0.239992   
    180. A(C   5,Ni  3,C  20)          141.1212         0.236283   
    181. A(C  18,Ni  3,H  96)          114.2056         0.294769   
    182. A(C   1,Ni  3,N  22)          115.8555         0.398823   
    183. A(O   2,Ni  3,C  21)          117.9274         0.405975   
    184. A(N   4,Ni  3,C  20)          123.3961         0.372195   
    185. A(N   4,Ni  3,H  96)           89.8912         0.487040   
    186. A(N   4,Ni  3,N  19)           93.7908         0.644971   
    187. A(C  21,Ni  3,N  22)           26.0035         0.391268   
    188. A(C  20,Ni  3,H  96)           76.3053         0.286537   
    189. A(C  18,Ni  3,N  22)           92.2283         0.380293   
    190. A(O   2,Ni  3,N  22)           92.3631         0.672474   
    191. A(C   1,Ni  3,C  20)          157.6106         0.244712   
    192. A(N   4,Ni  3,C  18)           88.5609         0.383998   
    193. A(C   5,Ni  3,C  18)          120.4726         0.242421   
    194. A(C  12,Ni  3,H  96)          116.2565         0.280549   
    195. A(C  12,Ni  3,C  18)           75.2224         0.230962   
    196. A(C   1,Ni  3,O   2)           26.9998         0.413897   
    197. A(C   1,Ni  3,N   4)           63.0527         0.402763   
    198. A(C  20,Ni  3,C  21)           31.9863         0.240915   
    199. A(N   4,Ni  3,C  12)           26.5854         0.363611   
    200. A(N  19,Ni  3,C  20)           30.8821         0.364914   
    201. A(C  18,Ni  3,C  21)           72.5943         0.247247   
    202. A(C   5,Ni  3,C  21)          158.4489         0.248202   
    203. A(Ni  3,N   4,C  12)          116.6814         0.519488   
    204. A(C   5,N   4,C  12)          112.0425         0.389989   
    205. A(Ni  3,N   4,C   5)          106.3148         0.487983   
    206. A(Ni  3,C   5,N   4)           41.6669         0.296502   
    207. A(Ni  3,C   5,H  54)          142.0963         0.263960   
    208. A(N   4,C   5,C   6)          111.8421         0.369521   
    209. A(Ni  3,C   5,C   6)          107.1208         0.297662   
    210. A(C   1,C   5,N   4)          105.9121         0.359762   
    211. A(C   1,C   5,H  54)          107.0139         0.317299   
    212. A(C   1,C   5,Ni  3)           70.5582         0.290402   
    213. A(N   4,C   5,H  54)          110.2885         0.324213   
    214. A(C   6,C   5,H  54)          108.0432         0.325528   
    215. A(C   1,C   5,C   6)          113.6308         0.361276   
    216. A(C   7,C   6,C  11)          118.7166         0.435388   
    217. A(C   5,C   6,C  11)          119.4091         0.401449   
    218. A(C   5,C   6,C   7)          121.8717         0.401730   
    219. A(C   8,C   7,H  55)          120.1665         0.357241   
    220. A(C   6,C   7,C   8)          120.3521         0.437333   
    221. A(C   6,C   7,H  55)          119.4814         0.355983   
    222. A(C   7,C   8,H  56)          119.6348         0.356878   
    223. A(C   9,C   8,H  56)          119.8969         0.356753   
    224. A(C   7,C   8,C   9)          120.4680         0.438810   
    225. A(C   8,C   9,H  57)          120.2876         0.356770   
    226. A(C   8,C   9,C  10)          119.5312         0.438761   
    227. A(C  10,C   9,H  57)          120.1782         0.356857   
    228. A(C   9,C  10,H  58)          120.1631         0.356677   
    229. A(C   9,C  10,C  11)          119.9886         0.439350   
    230. A(C  11,C  10,H  58)          119.8481         0.357041   
    231. A(C   6,C  11,H  59)          119.2278         0.355567   
    232. A(C   6,C  11,C  10)          120.8830         0.437443   
    233. A(C  10,C  11,H  59)          119.8890         0.357390   
    234. A(Ni  3,C  12,C  17)          156.3713         0.300891   
    235. A(C  13,C  12,C  17)          117.9389         0.428491   
    236. A(N   4,C  12,C  17)          120.4234         0.421166   
    237. A(N   4,C  12,C  13)          121.6196         0.420918   
    238. A(Ni  3,C  12,C  13)           85.0880         0.300733   
    239. A(Ni  3,C  12,N   4)           36.7332         0.296164   
    240. A(C  14,C  13,H  60)          120.8851         0.354879   
    241. A(C  12,C  13,C  14)          121.0291         0.434775   
    242. A(C  12,C  13,H  60)          118.0441         0.349852   
    243. A(C  13,C  14,H  61)          119.9048         0.357777   
    244. A(C  15,C  14,H  61)          119.7646         0.356418   
    245. A(C  13,C  14,C  15)          120.3182         0.439656   
    246. A(C  14,C  15,H  62)          120.3393         0.356646   
    247. A(C  14,C  15,C  16)          119.3529         0.437728   
    248. A(C  16,C  15,H  62)          120.3010         0.356527   
    249. A(C  17,C  16,H  63)          119.4190         0.357691   
    250. A(C  15,C  16,H  63)          119.8312         0.356268   
    251. A(C  15,C  16,C  17)          120.7498         0.439429   
    252. A(C  12,C  17,H  64)          119.2305         0.352885   
    253. A(C  12,C  17,C  16)          120.5972         0.434963   
    254. A(C  16,C  17,H  64)          120.1720         0.357714   
    255. A(Ni  3,C  18,H  67)           82.1546         0.264670   
    256. A(N  19,C  18,H  67)          109.9509         0.328821   
    257. A(Ni  3,C  18,N  19)           42.5599         0.297191   
    258. A(Ni  3,C  18,H  65)          152.6570         0.263088   
    259. A(N  19,C  18,H  66)          110.5379         0.328920   
    260. A(H  65,C  18,H  66)          108.2611         0.289620   
    261. A(Ni  3,C  18,H  66)           91.2706         0.264743   
    262. A(H  66,C  18,H  67)          109.0977         0.291443   
    263. A(H  65,C  18,H  67)          108.0140         0.289537   
    264. A(N  19,C  18,H  65)          110.9123         0.326661   
    265. A(C  20,N  19,C  39)          109.7157         0.367129   
    266. A(C  18,N  19,C  39)          106.1125         0.369175   
    267. A(Ni  3,N  19,C  39)          119.4443         0.475789   
    268. A(Ni  3,N  19,C  18)          105.6752         0.481369   
    269. A(C  18,N  19,C  20)          107.0283         0.371141   
    270. A(Ni  3,N  19,C  20)          108.1590         0.478503   
    271. A(Ni  3,C  20,H  68)          110.0329         0.256563   
    272. A(Ni  3,C  20,N  19)           40.9589         0.287401   
    273. A(C  21,C  20,H  69)          111.2155         0.331639   
    274. A(N  19,C  20,H  69)          111.5171         0.325020   
    275. A(N  19,C  20,C  21)          109.2960         0.376935   
    276. A(Ni  3,C  20,C  21)           70.5320         0.292965   
    277. A(C  21,C  20,H  68)          107.8182         0.332180   
    278. A(N  19,C  20,H  68)          109.5734         0.325546   
    279. A(Ni  3,C  20,H  69)          139.8102         0.256190   
    280. A(H  68,C  20,H  69)          107.3243         0.288335   
    281. A(C  20,C  21,H  71)          119.0589         0.333072   
    282. A(N  22,C  21,H  71)          122.9013         0.372813   
    283. A(Ni  3,C  21,N  22)           40.5047         0.345369   
    284. A(C  20,C  21,N  22)          117.9775         0.433208   
    285. A(Ni  3,C  21,C  20)           77.4817         0.309471   
    286. A(Ni  3,C  21,H  71)          163.3645         0.270787   
    287. A(C  21,N  22,C  23)          120.2270         0.436363   
    288. A(Ni  3,N  22,C  23)          126.1927         0.498553   
    289. A(Ni  3,N  22,C  21)          113.4918         0.560913   
    290. A(H  72,C  23,H  74)          110.4359         0.289877   
    291. A(N  22,C  23,H  74)          108.2149         0.335480   
    292. A(H  73,C  23,H  74)          106.4644         0.290835   
    293. A(N  22,C  23,H  73)          109.0522         0.335858   
    294. A(H  72,C  23,H  73)          110.3692         0.290185   
    295. A(N  22,C  23,H  72)          112.1170         0.334686   
    296. A(H  73,C  24,H  76)          169.0723         0.134341   
    297. A(H  70,C  24,H  76)          107.7258         0.291973   
    298. A(C  25,C  24,H  75)          110.0446         0.329869   
    299. A(C  25,C  24,H  70)          112.7224         0.331250   
    300. A(C  25,C  24,H  76)          110.4364         0.330030   
    301. A(H  70,C  24,H  75)          107.6565         0.291838   
    302. A(H  75,C  24,H  76)          108.0972         0.290815   
    303. A(H  73,C  24,H  75)           66.7065         0.134311   
    304. A(H  70,C  24,H  73)           66.4594         0.134570   
    305. A(C  25,C  24,H  73)           80.4912         0.143115   
    306. A(C  26,C  25,C  38)          119.7532         0.425766   
    307. A(C  24,C  25,C  38)          122.1074         0.400450   
    308. A(C  24,C  25,C  26)          118.1374         0.400054   
    309. A(C  38,C  25,H  73)           77.9661         0.141186   
    310. A(C  26,C  25,H  73)          123.8866         0.141120   
    311. A(C  24,C  25,H  73)           70.2027         0.137202   
    312. A(C  31,C  26,H  67)           78.0255         0.163219   
    313. A(C  27,C  26,H  67)           80.5490         0.163785   
    314. A(C  25,C  26,H  67)          111.2035         0.164660   
    315. A(C  25,C  26,C  27)          122.4791         0.421448   
    316. A(C  27,C  26,C  31)          117.3142         0.415112   
    317. A(C  25,C  26,C  31)          120.2058         0.418928   
    318. A(C  26,C  27,H  60)           95.9370         0.133766   
    319. A(C  28,C  27,H  61)           83.6736         0.138781   
    320. A(C  26,C  27,C  28)          121.5778         0.434287   
    321. A(H  61,C  27,H  67)           85.8914         0.098486   
    322. A(C  28,C  27,H  67)           86.3975         0.158137   
    323. A(C  26,C  27,H  61)          141.0995         0.136375   
    324. A(C  28,C  27,H  60)          105.3989         0.136039   
    325. A(C  26,C  27,H  77)          119.2627         0.349287   
    326. A(H  60,C  27,H  67)           48.5228         0.097964   
    327. A(C  28,C  27,H  77)          119.1568         0.362502   
    328. A(H  61,C  27,H  77)           47.1485         0.126526   
    329. A(H  60,C  27,H  61)           46.1840         0.095454   
    330. A(H  67,C  27,H  77)          116.5558         0.141117   
    331. A(C  26,C  27,H  67)           68.5600         0.154796   
    332. A(H  60,C  27,H  77)           68.3151         0.124460   
    333. A(C  27,C  28,H  78)          120.1810         0.361988   
    334. A(C  29,C  28,H  61)          148.7637         0.131492   
    335. A(H  61,C  28,H  67)           79.5508         0.095879   
    336. A(C  27,C  28,C  29)          120.7217         0.437884   
    337. A(H  67,C  28,H  78)          125.0411         0.131497   
    338. A(C  29,C  28,H  67)           80.5992         0.143312   
    339. A(C  27,C  28,H  67)           66.4095         0.145481   
    340. A(C  29,C  28,H  78)          119.0967         0.351505   
    341. A(H  61,C  28,H  78)           57.2110         0.122248   
    342. A(C  27,C  28,H  61)           71.8689         0.133189   
    343. A(H  65,C  29,H  67)           32.9723         0.095948   
    344. A(C  28,C  29,C  30)          119.8279         0.438423   
    345. A(C  30,C  29,H  65)           72.1035         0.137653   
    346. A(C  28,C  29,H  65)           99.2304         0.135712   
    347. A(H  67,C  29,H  79)          128.8640         0.128034   
    348. A(C  30,C  29,H  67)           71.0155         0.140974   
    349. A(C  28,C  29,H  67)           72.5357         0.138901   
    350. A(H  65,C  29,H  79)           98.8539         0.125540   
    351. A(C  28,C  29,H  79)          119.4310         0.351426   
    352. A(C  30,C  29,H  79)          120.7404         0.362328   
    353. A(C  31,C  30,H  67)           65.5292         0.144847   
    354. A(C  29,C  30,H  80)          120.8921         0.361998   
    355. A(C  29,C  30,C  31)          121.0781         0.435576   
    356. A(H  65,C  30,H  67)           34.5109         0.097716   
    357. A(H  65,C  30,H  80)           93.7633         0.129574   
    358. A(C  31,C  30,H  65)           94.3388         0.140510   
    359. A(C  29,C  30,H  65)           82.5935         0.143090   
    360. A(H  67,C  30,H  80)          123.2627         0.132990   
    361. A(C  29,C  30,H  67)           82.9575         0.147644   
    362. A(C  31,C  30,H  80)          118.0273         0.348974   
    363. A(C  30,C  31,C  32)          121.2102         0.427194   
    364. A(C  26,C  31,C  30)          119.4796         0.415826   
    365. A(C  26,C  31,C  32)          119.3093         0.423898   
    366. A(C  32,C  31,H  67)          113.6250         0.159767   
    367. A(C  30,C  31,H  67)           85.6107         0.158062   
    368. A(C  26,C  31,H  67)           70.4357         0.157389   
    369. A(C  31,C  32,C  33)          121.2354         0.435576   
    370. A(H  71,C  32,H  81)           96.8514         0.122694   
    371. A(C  33,C  32,H  71)           63.5597         0.132851   
    372. A(C  31,C  32,H  71)          110.0408         0.132847   
    373. A(C  33,C  32,H  81)          119.3294         0.355324   
    374. A(C  31,C  32,H  81)          119.4257         0.355301   
    375. A(C  34,C  33,C  38)          119.6475         0.414755   
    376. A(C  32,C  33,C  38)          119.9008         0.423015   
    377. A(C  32,C  33,C  34)          120.4515         0.427034   
    378. A(C  38,C  33,H  71)           95.8610         0.145041   
    379. A(C  34,C  33,H  71)           83.1435         0.145715   
    380. A(C  32,C  33,H  71)           91.1462         0.147153   
    381. A(C  33,C  34,C  35)          121.2583         0.435633   
    382. A(C  35,C  34,H  82)          120.7911         0.362204   
    383. A(C  33,C  34,H  82)          117.9472         0.348838   
    384. A(H  71,C  34,H  82)           96.4261         0.127760   
    385. A(C  35,C  34,H  71)          103.8317         0.140707   
    386. A(C  33,C  34,H  71)           69.6558         0.138177   
    387. A(C  34,C  35,C  36)          119.5593         0.438596   
    388. A(C  36,C  35,H  83)          119.5633         0.351362   
    389. A(C  34,C  35,H  83)          120.8745         0.362519   
    390. A(C  35,C  36,C  37)          120.8136         0.437927   
    391. A(C  37,C  36,H  84)          120.0217         0.361966   
    392. A(C  35,C  36,H  84)          119.1646         0.351333   
    393. A(H  72,C  36,H  84)          108.6902         0.129289   
    394. A(C  37,C  36,H  72)           66.8511         0.142588   
    395. A(C  35,C  36,H  72)           94.6093         0.140500   
    396. A(C  36,C  37,C  38)          121.9188         0.434119   
    397. A(C  38,C  37,H  85)          119.8797         0.348887   
    398. A(C  36,C  37,H  85)          118.1971         0.362405   
    399. A(H  72,C  37,H  73)           35.4398         0.098615   
    400. A(H  73,C  37,H  85)           74.2408         0.129196   
    401. A(C  38,C  37,H  73)           77.1492         0.139740   
    402. A(C  36,C  37,H  73)          120.1190         0.142379   
    403. A(H  72,C  37,H  85)           99.8666         0.138250   
    404. A(C  38,C  37,H  72)           84.5372         0.151168   
    405. A(C  36,C  37,H  72)           86.5743         0.154401   
    406. A(C  33,C  38,C  37)          116.7668         0.413953   
    407. A(C  25,C  38,C  37)          123.7438         0.421594   
    408. A(C  25,C  38,C  33)          119.4890         0.418449   
    409. A(H  72,C  38,H  73)           34.3237         0.096917   
    410. A(C  37,C  38,H  73)           75.8883         0.139065   
    411. A(C  33,C  38,H  73)          122.0447         0.138592   
    412. A(C  25,C  38,H  73)           75.3190         0.139758   
    413. A(C  37,C  38,H  72)           67.4610         0.140876   
    414. A(C  33,C  38,H  72)           94.8961         0.140385   
    415. A(C  25,C  38,H  72)          107.3054         0.141594   
    416. A(N  19,C  39,C  40)          121.4611         0.367095   
    417. A(H  86,C  39,H  87)          108.4998         0.288594   
    418. A(C  40,C  39,H  87)          105.9433         0.325206   
    419. A(N  19,C  39,H  87)          105.8283         0.323589   
    420. A(C  40,C  39,H  86)          108.7077         0.325610   
    421. A(N  19,C  39,H  86)          105.8772         0.323990   
    422. A(C  39,C  40,C  41)          115.3673         0.394235   
    423. A(C  41,C  40,C  53)          119.0305         0.423520   
    424. A(C  39,C  40,C  53)          125.5895         0.395877   
    425. A(C  42,C  41,C  46)          116.4559         0.414661   
    426. A(C  40,C  41,C  46)          119.9349         0.417054   
    427. A(C  40,C  41,C  42)          123.5885         0.419303   
    428. A(C  41,C  42,C  43)          121.8966         0.433649   
    429. A(C  43,C  42,H  88)          117.8167         0.362068   
    430. A(C  41,C  42,H  88)          120.2206         0.348792   
    431. A(C  42,C  43,C  44)          121.0048         0.438058   
    432. A(C  44,C  43,H  89)          119.1705         0.351673   
    433. A(C  42,C  43,H  89)          119.8217         0.361609   
    434. A(C  43,C  44,C  45)          119.3170         0.439087   
    435. A(C  45,C  44,H  90)          121.0043         0.362549   
    436. A(C  43,C  44,H  90)          119.6683         0.351804   
    437. A(C  44,C  45,C  46)          121.2218         0.436010   
    438. A(C  46,C  45,H  91)          117.9103         0.349302   
    439. A(C  44,C  45,H  91)          120.8591         0.362347   
    440. A(C  45,C  46,C  47)          120.4025         0.427454   
    441. A(C  41,C  46,C  47)          119.5950         0.423846   
    442. A(C  41,C  46,C  45)          120.0023         0.415928   
    443. A(C  48,C  47,H  92)          119.5060         0.356041   
    444. A(C  46,C  47,H  92)          119.4249         0.355544   
    445. A(C  46,C  47,C  48)          121.0366         0.436298   
    446. A(C  49,C  48,C  53)          119.7686         0.414887   
    447. A(C  47,C  48,C  53)          119.8047         0.423615   
    448. A(C  47,C  48,C  49)          120.4252         0.427870   
    449. A(C  50,C  49,H  93)          120.8787         0.362474   
    450. A(C  48,C  49,H  93)          117.7796         0.349116   
    451. A(C  48,C  49,C  50)          121.3271         0.435979   
    452. A(C  51,C  50,H  94)          119.7077         0.351589   
    453. A(C  49,C  50,H  94)          120.9310         0.362712   
    454. A(C  49,C  50,C  51)          119.3392         0.438973   
    455. A(C  52,C  51,H  95)          119.7327         0.362123   
    456. A(C  50,C  51,H  95)          119.4198         0.351541   
    457. A(C  50,C  51,C  52)          120.8274         0.438285   
    458. A(C  53,C  52,H  96)          119.0367         0.344403   
    459. A(C  51,C  52,H  96)          118.6386         0.357261   
    460. A(C  51,C  52,C  53)          122.1718         0.434948   
    461. A(C  48,C  53,C  52)          116.4186         0.414558   
    462. A(C  40,C  53,C  52)          123.7944         0.421824   
    463. A(C  40,C  53,C  48)          119.7667         0.417977   
    464. A(C  27,H  60,H  77)           19.6959         0.093042   
    465. A(C  27,H  60,H  75)           56.8356         0.094194   
    466. A(C  13,H  60,C  27)          114.0123         0.123975   
    467. A(H  75,H  60,H  77)           47.7019         0.092442   
    468. A(C  13,H  60,H  77)          111.0233         0.112181   
    469. A(C  13,H  60,H  75)          145.1165         0.118787   
    470. A(C  14,H  61,H  77)          129.9856         0.123054   
    471. A(C  28,H  61,H  78)           18.6751         0.093251   
    472. A(C  27,H  61,C  28)           24.4575         0.095063   
    473. A(C  28,H  61,H  77)           40.1504         0.094518   
    474. A(C  14,H  61,C  28)          112.1204         0.122214   
    475. A(C  27,H  61,H  78)           41.3266         0.093789   
    476. A(C  27,H  61,H  77)           18.2597         0.095216   
    477. A(C  14,H  61,C  27)          117.6456         0.126417   
    478. A(H  77,H  61,H  78)           53.5761         0.093359   
    479. A(C  14,H  61,H  78)          115.5030         0.115237   
    480. A(C  29,H  65,C  30)           25.3030         0.096231   
    481. A(C  18,H  65,C  29)          100.3601         0.124952   
    482. A(C  18,H  65,C  30)          105.0419         0.128971   
    483. A(C  28,H  67,C  29)           26.8651         0.097079   
    484. A(C  29,H  67,C  30)           26.0270         0.097375   
    485. A(C  27,H  67,C  29)           48.5584         0.098889   
    486. A(C  29,H  67,C  31)           49.1529         0.099357   
    487. A(C  26,H  67,C  29)           59.2048         0.100240   
    488. A(C  18,H  67,C  29)          105.2952         0.127756   
    489. A(C  28,H  67,C  30)           47.8709         0.098115   
    490. A(C  27,H  67,C  28)           27.1930         0.099763   
    491. A(C  28,H  67,C  31)           58.9788         0.100272   
    492. A(C  26,H  67,C  28)           51.3002         0.101233   
    493. A(C  18,H  67,C  28)          117.4093         0.131181   
    494. A(C  27,H  67,C  30)           58.7137         0.100158   
    495. A(C  30,H  67,C  31)           28.8601         0.100686   
    496. A(C  26,H  67,C  30)           52.6056         0.101682   
    497. A(C  18,H  67,C  30)          111.4286         0.132729   
    498. A(C  27,H  67,C  31)           53.5444         0.102798   
    499. A(C  26,H  67,C  27)           30.8910         0.103974   
    500. A(C  18,H  67,C  27)          142.6585         0.140633   
    501. A(C  26,H  67,C  31)           31.5388         0.104683   
    502. A(C  18,H  67,C  31)          135.2253         0.143077   
    503. A(C  18,H  67,C  26)          163.7442         0.147687   
    504. A(C  24,H  70,H  73)           91.4974         0.119583   
    505. A(C  32,H  71,C  34)           45.1790         0.095379   
    506. A(C  32,H  71,C  33)           25.2940         0.096357   
    507. A(C  21,H  71,C  32)           98.8909         0.122414   
    508. A(C  33,H  71,C  34)           27.2007         0.097460   
    509. A(C  21,H  71,C  34)          139.1842         0.127423   
    510. A(C  21,H  71,C  33)          112.0270         0.133312   
    511. A(C  36,H  72,H  85)           39.4653         0.092909   
    512. A(C  38,H  72,H  85)           41.0263         0.092981   
    513. A(C  37,H  72,H  85)           19.5980         0.093771   
    514. A(C  23,H  72,H  85)          100.7857         0.108669   
    515. A(C  36,H  72,C  38)           47.4141         0.097055   
    516. A(C  36,H  72,C  37)           26.5746         0.098653   
    517. A(C  23,H  72,C  36)          139.2845         0.128796   
    518. A(C  37,H  72,C  38)           28.0019         0.098831   
    519. A(C  23,H  72,C  38)           99.6439         0.129528   
    520. A(C  23,H  72,C  37)          113.0740         0.137569   
    521. A(C  37,H  73,C  38)           26.9624         0.096744   
    522. A(C  25,H  73,C  38)           26.7149         0.096856   
    523. A(C  38,H  73,H  85)           42.3848         0.093642   
    524. A(C  24,H  73,C  38)           50.5835         0.097819   
    525. A(C  38,H  73,H  75)           69.1939         0.094896   
    526. A(C  38,H  73,H  70)           55.3339         0.094919   
    527. A(C  23,H  73,C  38)           97.4102         0.128300   
    528. A(C  25,H  73,C  37)           48.5436         0.096961   
    529. A(C  37,H  73,H  85)           20.6718         0.093705   
    530. A(C  24,H  73,C  37)           60.6578         0.097938   
    531. A(C  37,H  73,H  75)           82.7259         0.094976   
    532. A(C  37,H  73,H  70)           53.0765         0.094998   
    533. A(C  23,H  73,C  37)           98.5650         0.128830   
    534. A(C  25,H  73,H  85)           54.9052         0.093773   
    535. A(C  24,H  73,C  25)           29.3062         0.098067   
    536. A(C  25,H  73,H  75)           43.6048         0.095062   
    537. A(C  25,H  73,H  70)           44.2428         0.095085   
    538. A(C  23,H  73,C  25)          115.3272         0.129406   
    539. A(C  24,H  73,H  85)           54.5117         0.094358   
    540. A(H  75,H  73,H  85)           75.9273         0.092582   
    541. A(H  70,H  73,H  85)           39.4292         0.092596   
    542. A(C  23,H  73,H  85)          114.9332         0.112877   
    543. A(C  24,H  73,H  75)           22.1942         0.095806   
    544. A(C  24,H  73,H  70)           22.0432         0.095832   
    545. A(C  23,H  73,C  24)          144.5972         0.134363   
    546. A(H  70,H  73,H  75)           38.6874         0.093568   
    547. A(C  23,H  73,H  75)          147.2124         0.119329   
    548. A(C  23,H  73,H  70)          151.1637         0.119443   
    549. A(H  60,H  75,H  73)           86.8440         0.093487   
    550. A(C  24,H  75,H  60)          147.3796         0.118869   
    551. A(C  24,H  75,H  73)           91.0993         0.119294   
    552. A(C  27,H  77,H  61)          114.5919         0.123153   
    553. A(H  60,H  77,H  61)           52.9303         0.092893   
    554. A(C  27,H  77,H  60)           91.9890         0.112502   
    555. A(C  28,H  78,H  61)          104.1140         0.115264   
    556. A(H  72,H  85,H  73)           33.8941         0.091334   
    557. A(C  37,H  85,H  72)           60.5354         0.108945   
    558. A(C  37,H  85,H  73)           85.0874         0.113097   
    559. A(Ni  3,H  96,C  52)          161.7303         0.323493   
    560. D(Ni  3,O   2,C   1,O   0)    166.5535         0.054728   
    561. D(Ni  3,O   2,C   1,C   5)    -14.4406         0.054728   
    562. D(O   2,Ni  3,C   1,O   0)    -35.3862         0.010000   
    563. D(O   2,Ni  3,C   1,C   5)    166.3498         0.010000   
    564. D(C   5,Ni  3,O   2,C   1)      8.7425         0.010976   
    565. D(N   4,Ni  3,O   2,C   1)     28.9470         0.010976   
    566. D(N   4,Ni  3,C   1,O   0)    177.4236         0.010000   
    567. D(C   5,N   4,Ni  3,O   2)    -34.6154         0.010000   
    568. D(C  12,N   4,Ni  3,C   1)    105.4391         0.010000   
    569. D(C   5,N   4,Ni  3,C   1)    -20.3453         0.010000   
    570. D(N   4,C   5,C   1,O   0)    166.0475         0.010000   
    571. D(C   1,C   5,N   4,Ni  3)     32.7572         0.014767   
    572. D(C   1,C   5,Ni  3,O   2)     -7.0570         0.010000   
    573. D(C   1,C   5,Ni  3,N   4)   -146.5085         0.010000   
    574. D(Ni  3,C   5,C   1,O   2)      9.4565         0.010000   
    575. D(Ni  3,C   5,N   4,C  12)   -128.5558         0.014767   
    576. D(C   1,C   5,N   4,C  12)    -95.7986         0.014767   
    577. D(N   4,C   5,Ni  3,C   1)    146.5085         0.010000   
    578. D(Ni  3,C   5,C   1,O   0)   -171.5283         0.010000   
    579. D(C   7,C   6,C   5,C   1)     24.0840         0.012527   
    580. D(C   7,C   6,C   5,Ni  3)     99.8794         0.012527   
    581. D(C  11,C   6,C   5,C   1)   -156.5123         0.012527   
    582. D(C   8,C   7,C   6,C   5)   -178.2339         0.027195   
    583. D(C   8,C   7,C   6,C  11)      2.3583         0.027195   
    584. D(H  55,C   7,C   6,C   5)      1.7908         0.027195   
    585. D(H  56,C   8,C   7,C   6)    179.3987         0.028425   
    586. D(C   9,C   8,C   7,H  55)    179.5945         0.028425   
    587. D(C   9,C   8,C   7,C   6)     -0.3806         0.028425   
    588. D(C  10,C   9,C   8,C   7)     -1.4601         0.028300   
    589. D(C  10,C   9,C   8,H  56)    178.7612         0.028300   
    590. D(H  57,C   9,C   8,C   7)    179.1784         0.028300   
    591. D(C  11,C  10,C   9,C   8)      1.2801         0.028387   
    592. D(C  11,C  10,C   9,H  57)   -179.3577         0.028387   
    593. D(H  58,C  10,C   9,C   8)   -178.8970         0.028387   
    594. D(H  59,C  11,C  10,C   9)   -179.1433         0.028753   
    595. D(C   6,C  11,C  10,C   9)      0.7387         0.028753   
    596. D(H  59,C  11,C   6,C   5)     -2.0856         0.026967   
    597. D(C   6,C  11,C  10,H  58)   -179.0847         0.028753   
    598. D(C  10,C  11,C   6,C   5)    178.0315         0.026967   
    599. D(C  10,C  11,C   6,C   7)     -2.5458         0.026967   
    600. D(C  13,C  12,N   4,C   5)    116.1393         0.027456   
    601. D(C  13,C  12,N   4,Ni  3)     -6.7255         0.027456   
    602. D(Ni  3,C  12,N   4,C   5)    122.8648         0.027456   
    603. D(C  13,C  12,Ni  3,C   1)    110.0363         0.010000   
    604. D(N   4,C  12,Ni  3,O   2)    -87.3208         0.010000   
    605. D(N   4,C  12,Ni  3,C   1)    -64.2191         0.010000   
    606. D(C  14,C  13,C  12,Ni  3)    173.2284         0.026684   
    607. D(H  60,C  13,C  12,Ni  3)     -9.1006         0.026684   
    608. D(C  14,C  13,C  12,N   4)    177.2598         0.026684   
    609. D(H  61,C  14,C  13,C  12)    179.0482         0.029383   
    610. D(C  15,C  14,C  13,C  12)      0.3297         0.029383   
    611. D(C  15,C  14,C  13,H  60)   -177.2750         0.029383   
    612. D(H  62,C  15,C  14,C  13)    179.6853         0.028010   
    613. D(C  16,C  15,C  14,H  61)   -178.0868         0.028010   
    614. D(C  16,C  15,C  14,C  13)      0.6335         0.028010   
    615. D(H  63,C  16,C  15,C  14)    179.2702         0.027893   
    616. D(C  17,C  16,C  15,C  14)     -0.6998         0.027893   
    617. D(C  17,C  16,C  15,H  62)   -179.7520         0.027893   
    618. D(C  12,C  17,C  16,H  63)    179.8311         0.029326   
    619. D(H  64,C  17,C  12,Ni  3)     14.8986         0.026871   
    620. D(C  16,C  17,C  12,Ni  3)   -164.9024         0.026871   
    621. D(C  12,C  17,C  16,C  15)     -0.1987         0.029326   
    622. D(C  16,C  17,C  12,N   4)   -177.3475         0.026871   
    623. D(H  64,C  17,C  16,C  15)   -179.9979         0.029326   
    624. D(H  65,C  18,Ni  3,C   1)   -143.6238         0.010000   
    625. D(N  19,C  18,Ni  3,C   1)   -126.7806         0.010000   
    626. D(N  19,C  18,Ni  3,O   2)   -179.9122         0.010000   
    627. D(Ni  3,N  19,C  18,H  66)    -68.1006         0.017038   
    628. D(Ni  3,N  19,C  18,H  65)    171.8090         0.017038   
    629. D(C  20,N  19,C  18,Ni  3)   -115.1178         0.017038   
    630. D(C  20,N  19,O   2,C   1)   -135.2772         0.010000   
    631. D(C  18,N  19,Ni  3,C   1)    112.1014         0.010000   
    632. D(C  18,N  19,Ni  3,N   4)     81.0936         0.010000   
    633. D(C  18,N  19,O   2,C   1)    110.2004         0.010000   
    634. D(C  20,N  19,Ni  3,C   1)   -133.5593         0.010000   
    635. D(Ni  3,C  20,N  19,C  18)    113.4430         0.015967   
    636. D(Ni  3,C  20,N  19,C  39)   -131.8436         0.015967   
    637. D(C  21,C  20,N  19,Ni  3)    -19.6043         0.015967   
    638. D(C  21,C  20,Ni  3,C   1)    -80.9827         0.010000   
    639. D(N  19,C  20,Ni  3,O   2)    177.8697         0.010000   
    640. D(N  19,C  20,Ni  3,C   1)    118.6432         0.010000   
    641. D(N  22,C  21,C  20,Ni  3)      0.8784         0.016391   
    642. D(Ni  3,C  21,C  20,H  68)   -105.5466         0.016391   
    643. D(Ni  3,C  21,C  20,N  19)     13.4901         0.016391   
    644. D(N  22,C  21,Ni  3,C   1)    -33.6477         0.010000   
    645. D(C  20,C  21,Ni  3,O   2)    167.3925         0.010000   
    646. D(C  20,C  21,Ni  3,C   1)    145.1579         0.010000   
    647. D(C  23,N  22,C  21,Ni  3)    176.7860         0.076155   
    648. D(Ni  3,N  22,C  21,C  20)     -1.3202         0.076155   
    649. D(C  23,N  22,N   4,C   5)    -41.2777         0.010000   
    650. D(C  21,N  22,N   4,C  12)    -99.1780         0.010000   
    651. D(C  21,N  22,N   4,C   5)    135.5451         0.010000   
    652. D(C  23,N  22,Ni  3,C   1)    -20.4768         0.010000   
    653. D(Ni  3,N  22,C  21,H  71)   -178.4196         0.076155   
    654. D(C  21,N  22,Ni  3,O   2)    169.9221         0.010000   
    655. D(C  21,N  22,Ni  3,C   1)    156.0819         0.010000   
    656. D(H  73,C  23,N  22,Ni  3)    -60.2232         0.019466   
    657. D(H  72,C  23,N  22,C  21)      0.8931         0.019466   
    658. D(H  72,C  23,N  22,Ni  3)    177.2402         0.019466   
    659. D(C  38,C  25,C  24,H  70)     -1.4350         0.014464   
    660. D(C  26,C  25,C  24,H  75)     57.8553         0.014464   
    661. D(C  26,C  25,C  24,H  70)    178.0422         0.014464   
    662. D(C  31,C  26,C  25,C  24)   -177.4612         0.027545   
    663. D(C  27,C  26,C  25,C  38)   -177.5986         0.027545   
    664. D(C  27,C  26,C  25,C  24)      2.9115         0.027545   
    665. D(H  77,C  27,C  26,C  25)      0.1123         0.027867   
    666. D(C  28,C  27,C  26,C  31)     -0.1256         0.027867   
    667. D(C  28,C  27,C  26,C  25)    179.5119         0.027867   
    668. D(H  78,C  28,C  27,C  26)   -179.8573         0.047033   
    669. D(C  29,C  28,C  27,H  77)    179.2861         0.047033   
    670. D(C  29,C  28,C  27,C  26)     -0.1142         0.047033   
    671. D(H  79,C  29,C  28,C  27)   -179.4747         0.030709   
    672. D(C  30,C  29,C  28,H  78)    179.9721         0.030709   
    673. D(C  30,C  29,C  28,C  27)      0.2262         0.030709   
    674. D(H  80,C  30,C  29,C  28)   -179.5125         0.045297   
    675. D(C  31,C  30,C  29,H  79)    179.6067         0.045297   
    676. D(C  31,C  30,C  29,C  28)     -0.0902         0.045297   
    677. D(C  30,C  31,C  26,C  27)      0.2553         0.023041   
    678. D(C  32,C  31,C  26,C  25)      0.9666         0.023041   
    679. D(C  26,C  31,C  30,H  80)    179.2864         0.026871   
    680. D(C  30,C  31,C  26,C  25)   -179.3908         0.023041   
    681. D(C  32,C  31,C  30,C  29)    179.4836         0.026871   
    682. D(C  26,C  31,C  30,C  29)     -0.1520         0.026871   
    683. D(H  81,C  32,C  31,C  26)    178.6588         0.031707   
    684. D(C  33,C  32,C  31,C  30)    177.8968         0.031707   
    685. D(C  33,C  32,C  31,C  26)     -2.4669         0.031707   
    686. D(C  34,C  33,C  32,C  31)   -178.8854         0.031733   
    687. D(C  38,C  33,C  32,C  31)      0.9659         0.031733   
    688. D(C  34,C  33,C  32,H  81)     -0.0100         0.031733   
    689. D(H  82,C  34,C  33,C  32)     -0.8187         0.025094   
    690. D(C  35,C  34,C  33,C  38)     -1.3374         0.025094   
    691. D(C  35,C  34,C  33,C  32)    178.5143         0.025094   
    692. D(H  83,C  35,C  34,C  33)   -179.7091         0.037498   
    693. D(C  36,C  35,C  34,H  82)    178.9881         0.037498   
    694. D(C  36,C  35,C  34,C  33)     -0.3260         0.037498   
    695. D(H  84,C  36,C  35,C  34)   -178.7542         0.025282   
    696. D(C  37,C  36,C  35,C  34)      1.1185         0.025282   
    697. D(C  37,C  36,C  35,H  83)   -179.4902         0.025282   
    698. D(H  85,C  37,C  36,C  35)   -179.4522         0.042253   
    699. D(C  38,C  37,C  36,H  84)    179.6632         0.042253   
    700. D(C  38,C  37,C  36,C  35)     -0.2084         0.042253   
    701. D(C  33,C  38,C  37,C  36)     -1.4109         0.027651   
    702. D(C  25,C  38,C  37,H  85)     -1.9351         0.027651   
    703. D(C  25,C  38,C  37,C  36)    178.8335         0.027651   
    704. D(C  37,C  38,C  33,C  32)   -177.7034         0.023928   
    705. D(C  25,C  38,C  33,C  34)   -178.0843         0.023928   
    706. D(C  25,C  38,C  33,C  32)      2.0632         0.023928   
    707. D(C  37,C  38,C  25,C  24)     -4.2978         0.029707   
    708. D(C  33,C  38,C  25,C  26)     -3.5162         0.029707   
    709. D(C  33,C  38,C  25,C  24)    175.9528         0.029707   
    710. D(H  86,C  39,N  19,Ni  3)     46.8610         0.014138   
    711. D(C  40,C  39,N  19,C  18)    163.3826         0.014138   
    712. D(C  40,C  39,N  19,Ni  3)    -77.5387         0.014138   
    713. D(C  53,C  40,C  39,N  19)     28.2920         0.011361   
    714. D(C  41,C  40,C  39,N  19)   -153.0270         0.011361   
    715. D(C  41,C  40,C  39,H  86)     83.8928         0.011361   
    716. D(C  46,C  41,C  40,C  39)    172.0218         0.022458   
    717. D(C  42,C  41,C  40,C  53)    169.0824         0.022458   
    718. D(C  42,C  41,C  40,C  39)     -9.6909         0.022458   
    719. D(H  88,C  42,C  41,C  40)     -3.7077         0.020997   
    720. D(C  43,C  42,C  41,C  46)     -2.3450         0.020997   
    721. D(C  43,C  42,C  41,C  40)    179.3127         0.020997   
    722. D(H  89,C  43,C  42,C  41)    178.9448         0.033485   
    723. D(C  44,C  43,C  42,H  88)   -177.4653         0.033485   
    724. D(C  44,C  43,C  42,C  41)     -0.4161         0.033485   
    725. D(H  90,C  44,C  43,C  42)   -179.1430         0.023605   
    726. D(C  45,C  44,C  43,H  89)   -177.3510         0.023605   
    727. D(C  45,C  44,C  43,C  42)      2.0140         0.023605   
    728. D(H  91,C  45,C  44,C  43)    178.1845         0.034442   
    729. D(C  46,C  45,C  44,H  90)   -179.5367         0.034442   
    730. D(C  46,C  45,C  44,C  43)     -0.7095         0.034442   
    731. D(C  47,C  46,C  45,C  44)    177.7365         0.021758   
    732. D(C  41,C  46,C  45,H  91)    178.9353         0.021758   
    733. D(C  41,C  46,C  45,C  44)     -2.1391         0.021758   
    734. D(C  47,C  46,C  41,C  40)      2.1007         0.019728   
    735. D(C  45,C  46,C  41,C  42)      3.5708         0.019728   
    736. D(C  45,C  46,C  41,C  40)   -178.0227         0.019728   
    737. D(H  92,C  47,C  46,C  41)   -177.4340         0.027178   
    738. D(C  48,C  47,C  46,C  45)   -175.2258         0.027178   
    739. D(C  48,C  47,C  46,C  41)      4.6503         0.027178   
    740. D(C  53,C  48,C  47,C  46)     -4.1545         0.027658   
    741. D(C  49,C  48,C  47,H  92)     -2.5184         0.027658   
    742. D(C  49,C  48,C  47,C  46)    175.3956         0.027658   
    743. D(H  93,C  49,C  48,C  47)      1.5124         0.023481   
    744. D(C  50,C  49,C  48,C  53)      2.4391         0.023481   
    745. D(C  50,C  49,C  48,C  47)   -177.1111         0.023481   
    746. D(H  94,C  50,C  49,C  48)    179.2847         0.037664   
    747. D(C  51,C  50,C  49,H  93)   -177.5820         0.037664   
    748. D(C  51,C  50,C  49,C  48)      0.9990         0.037664   
    749. D(H  95,C  51,C  50,C  49)    175.8710         0.023416   
    750. D(C  52,C  51,C  50,H  94)    179.1995         0.023416   
    751. D(C  52,C  51,C  50,C  49)     -2.4936         0.023416   
    752. D(H  96,C  52,C  51,C  50)    175.9317         0.033975   
    753. D(C  53,C  52,C  51,H  95)   -177.8864         0.033975   
    754. D(C  53,C  52,C  51,C  50)      0.4731         0.033975   
    755. D(C  48,C  53,C  52,C  51)      2.8656         0.021433   
    756. D(C  40,C  53,C  52,H  96)      5.7771         0.021433   
    757. D(C  40,C  53,C  52,C  51)   -178.7818         0.021433   
    758. D(C  52,C  53,C  48,C  47)    175.2987         0.019276   
    759. D(C  40,C  53,C  48,C  49)    177.3227         0.019276   
    760. D(C  40,C  53,C  48,C  47)     -3.1242         0.019276   
    761. D(C  52,C  53,C  40,C  39)     10.0293         0.023600   
    762. D(C  48,C  53,C  40,C  41)      9.6928         0.023600   
    763. D(C  48,C  53,C  40,C  39)   -171.6703         0.023600   
    764. D(H  75,H  60,C  27,C  26)     63.2236         0.010000   
    765. D(C  13,H  60,C  27,C  28)    -30.2828         0.010000   
    766. D(C  13,H  60,C  27,C  26)   -155.3633         0.010000   
    767. D(H  77,H  60,C  13,C  12)    165.6332         0.128097   
    768. D(H  75,H  60,C  13,C  14)     28.1225         0.128097   
    769. D(H  75,H  60,C  13,C  12)   -149.5520         0.128097   
    770. D(C  14,H  61,C  28,C  29)     11.3556         0.010000   
    771. D(C  14,H  61,C  28,C  27)   -108.4269         0.010000   
    772. D(H  77,H  61,C  27,C  26)     84.9574         0.010000   
    773. D(C  14,H  61,C  27,C  28)     82.8243         0.010000   
    774. D(C  14,H  61,C  27,C  26)    -51.7311         0.010000   
    775. D(H  78,H  61,C  14,C  13)     84.4402         0.155250   
    776. D(H  77,H  61,C  14,C  15)   -159.5433         0.155250   
    777. D(H  77,H  61,C  28,C  27)     18.0093         0.010000   
    778. D(H  77,H  61,C  14,C  13)     21.7310         0.155250   
    779. D(C  29,H  65,C  30,C  31)    120.8094         0.010000   
    780. D(C  18,H  65,C  30,C  31)     38.4376         0.010000   
    781. D(C  18,H  65,C  30,C  29)    -82.3717         0.010000   
    782. D(C  30,H  65,C  29,C  28)   -118.4939         0.010000   
    783. D(C  18,H  65,C  29,C  30)    103.3312         0.010000   
    784. D(C  18,H  65,C  29,C  28)    -15.1628         0.010000   
    785. D(C  29,H  65,C  18,Ni  3)   -143.5375         0.131412   
    786. D(C  30,H  65,C  18,N  19)   -130.1395         0.131412   
    787. D(C  30,H  65,C  18,Ni  3)   -118.0291         0.131412   
    788. D(C  26,H  67,C  31,C  30)   -123.4412         0.010000   
    789. D(C  18,H  67,C  31,C  30)     41.0501         0.010000   
    790. D(C  26,H  67,C  30,C  29)    -95.5540         0.010000   
    791. D(C  18,H  67,C  30,C  31)   -150.2057         0.010000   
    792. D(C  18,H  67,C  30,C  29)     80.9147         0.010000   
    793. D(C  26,H  67,C  29,C  28)    -64.2693         0.010000   
    794. D(C  18,H  67,C  29,C  30)   -107.6457         0.010000   
    795. D(C  18,H  67,C  29,C  28)    121.0803         0.010000   
    796. D(C  26,H  67,C  28,C  27)    -32.1342         0.010000   
    797. D(C  18,H  67,C  28,C  29)    -68.5245         0.010000   
    798. D(C  18,H  67,C  28,C  27)    161.8814         0.010000   
    799. D(C  26,H  67,C  27,C  28)    126.0453         0.010000   
    800. D(C  18,H  67,C  27,C  28)    -27.0743         0.010000   
    801. D(C  18,H  67,C  27,C  26)   -153.1196         0.010000   
    802. D(C  31,H  67,C  26,C  25)   -117.9930         0.010000   
    803. D(C  18,H  67,C  26,C  27)     78.4384         0.010000   
    804. D(C  18,H  67,C  26,C  25)   -160.2742         0.010000   
    805. D(C  18,H  67,C  31,C  26)    164.4912         0.010000   
    806. D(C  31,H  67,C  18,Ni  3)    144.2786         0.182112   
    807. D(C  26,H  67,C  18,N  19)    141.5030         0.182112   
    808. D(C  26,H  67,C  18,Ni  3)    174.2551         0.182112   
    809. D(H  73,H  70,C  24,H  75)     53.7483         0.140320   
    810. D(H  73,H  70,C  24,C  25)    -67.8027         0.140320   
    811. D(C  21,H  71,C  32,C  31)      8.0888         0.010000   
    812. D(C  34,H  71,C  21,Ni  3)    -82.3256         0.140602   
    813. D(C  33,H  71,C  21,C  20)    102.2539         0.140602   
    814. D(C  33,H  71,C  21,Ni  3)    -84.2640         0.140602   
    815. D(C  33,H  71,C  34,C  35)    118.5975         0.010000   
    816. D(C  21,H  71,C  34,C  35)    114.6641         0.010000   
    817. D(C  21,H  71,C  34,C  33)     -3.9335         0.010000   
    818. D(C  34,H  71,C  33,C  32)    120.5411         0.010000   
    819. D(C  21,H  71,C  33,C  34)    177.2276         0.010000   
    820. D(C  21,H  71,C  33,C  32)    -62.2313         0.010000   
    821. D(C  33,H  71,C  32,C  31)   -115.7894         0.010000   
    822. D(C  21,H  71,C  32,C  33)    123.8782         0.010000   
    823. D(C  37,H  72,C  38,C  25)   -120.0415         0.010000   
    824. D(C  23,H  72,C  38,C  33)   -121.1955         0.010000   
    825. D(C  23,H  72,C  38,C  25)      1.7727         0.010000   
    826. D(C  38,H  72,C  37,C  36)   -122.5344         0.010000   
    827. D(C  23,H  72,C  37,C  38)    -65.5887         0.010000   
    828. D(C  23,H  72,C  37,C  36)    171.8770         0.010000   
    829. D(C  37,H  72,C  36,C  35)   -121.6305         0.010000   
    830. D(C  23,H  72,C  36,C  37)    -11.4952         0.010000   
    831. D(C  23,H  72,C  36,C  35)   -133.1257         0.010000   
    832. D(C  38,H  72,C  23,N  22)     78.8427         0.146220   
    833. D(C  37,H  72,C  23,H  73)    -17.2436         0.146220   
    834. D(C  37,H  72,C  23,N  22)    104.5425         0.146220   
    835. D(H  75,H  73,H  70,C  24)    -30.3711         0.010000   
    836. D(C  23,H  73,H  70,C  24)     90.9915         0.010000   
    837. D(H  70,H  73,C  38,C  25)    -55.7094         0.010000   
    838. D(C  23,H  73,C  38,C  33)     18.6505         0.010000   
    839. D(C  23,H  73,C  38,C  25)    134.5216         0.010000   
    840. D(H  70,H  73,C  37,C  36)    155.6344         0.010000   
    841. D(C  23,H  73,C  37,C  38)     89.5181         0.010000   
    842. D(C  23,H  73,C  37,C  36)    -30.1257         0.010000   
    843. D(H  70,H  73,C  25,C  24)    -27.7618         0.010000   
    844. D(C  23,H  73,C  25,C  26)     66.4444         0.010000   
    845. D(C  23,H  73,C  25,C  24)    177.6674         0.010000   
    846. D(H  70,H  73,C  24,C  25)    120.0115         0.010000   
    847. D(C  23,H  73,C  24,H  70)   -123.6524         0.010000   
    848. D(C  23,H  73,C  24,C  25)     -3.6409         0.010000   
    849. D(H  75,H  73,C  23,N  22)    -19.0379         0.181073   
    850. D(H  70,H  73,C  23,H  72)     24.2697         0.181073   
    851. D(H  70,H  73,C  23,N  22)    -99.3109         0.181073   
    852. D(H  60,H  75,H  73,C  23)     47.0835         0.010000   
    853. D(C  24,H  75,H  73,H  70)     30.1543         0.010000   
    854. D(C  24,H  75,H  73,C  23)   -100.3362         0.010000   
    855. D(H  73,H  75,H  60,C  13)    152.7907         0.010000   
    856. D(C  24,H  75,H  60,H  77)    -57.2977         0.010000   
[...]
 C     37  36  35     1.367568198843   120.81215859     1.02873819
 C     26  25  24     1.411386247334   122.04229876   298.38042049
 C     20  19   4     1.534374041558   109.02707946   120.55196233
 C     40  20  19     1.502960787564   116.51450541   130.29061632
 C     41  40  20     1.414496200100   120.46464150   260.61186590
 C     42  41  40     1.427263645535   123.47467500     4.54720889
 C     43  42  41     1.368810933221   121.64641002   179.85040225
 C     44  43  42     1.416698981041   120.90119983     0.24913186
 C     45  44  43     1.365356082937   119.68939999   359.32739660
 C     46  45  44     1.423948449857   121.17354290     0.00000000
 C     47  46  45     1.393234381410   120.82692521   181.66742571
 C     48  47  46     1.392966606986   121.61265356   178.15925284
 C     49  48  47     1.423503288601   121.21176149   182.23174781
 C     50  49  48     1.366169752996   120.82859982   177.76922960
 C     51  50  49     1.416677544500   120.03564766     0.36330149
 C     52  51  50     1.368169253918   120.82779221     0.95740750
 C     41  40  20     1.413580802172   119.59374795    81.30709656
 H      6   5   4     1.101158705382   110.47258224   149.80906979
 H      8   7   6     1.086065794783   119.54948823   359.46749333
 H      9   8   7     1.087065898926   119.42130208   179.75684802
 H     10   9   8     1.086310457845   120.38628394   179.38537894
 H     11  10   9     1.086775550433   120.10823957   180.56083443
 H     12  11  10     1.086848938631   120.21404350   179.97280463
 H     14  13   5     1.088408771254   118.38308487   355.66300868
 H     15  14  13     1.087222080122   119.58756619   178.98771156
 H     16  15  14     1.085594356755   120.64324546   179.31162008
 H     17  16  15     1.087037426323   119.92764657   179.77228121
 H     18  17  16     1.087486121332   119.95586677   181.05425655
 H     19   4   3     1.101021298970   153.72388975   171.23983669
 H     19   4   3     1.090603619052    86.10594505   300.46507898
 H     19   4   3     1.092427738689    84.00378297    50.51764790
 H     21  20  19     1.098548004750   110.10744361   220.64213617
 H     21  20  19     1.100660568543   111.20753001   337.94649650
 H     25  24  23     1.087781422217    70.51349147   178.07308823
 H     22  21  20     1.094859711482   119.35449750   189.74532264
 H     24  23  22     1.096026696109   111.61317864     0.72188633
 H     24  23  22     1.093620369933   108.89743436   122.36148001
 H     24  23  22     1.093505349795   108.55240531   238.16856696
 H     25  24  23     1.096237423057    72.38960378    62.20944873
 H     25  24  23     1.096387565278   177.44295027   144.61559420
 H     28  27  26     1.083973886508   119.51096880   359.90171749
 H     29  28  27     1.085869717392   119.74492128   179.36248873
 H     30  29  28     1.086119995821   119.66164130   180.10788910
 H     31  30  29     1.087505728906   120.64617434   179.97402582
 H     33  32  31     1.088437469004   119.43969641   359.67276406
 H     35  34  33     1.087426864048   118.15008663   359.81029980
 H     36  35  34     1.085962282858   120.44233372   180.30806365
 H     37  36  35     1.086046600966   119.53114049   181.04079356
 H     38  37  36     1.083171818831   118.36884213   179.98780274
 H     40  20  19     1.092136606733   105.87030386   254.14819744
 H     40  20  19     1.091465515131   107.25257540     6.81803767
 H     43  42  41     1.083854328406   119.99980108   359.97659261
 H     44  43  42     1.086216236354   119.54619758   179.98777274
 H     45  44  43     1.085864034964   119.82120019   179.49999790
 H     46  45  44     1.087189844380   120.66649741   180.29306771
 H     48  47  46     1.088398903572   119.10211395   359.36155302
 H     50  49  48     1.087150987682   118.34721282   358.47814344
 H     51  50  49     1.086160208692   120.32137765   180.40466653
 H     52  51  50     1.085129768875   119.92067553   179.79506744
 H     53  52  51     1.086610204663   118.66215778   179.09396681

---------------------------
INTERNAL COORDINATES (A.U.)
---------------------------
 O      0   0   0     0.000000000000     0.00000000     0.00000000
 C      1   0   0     2.300952970009     0.00000000     0.00000000
 O      2   1   0     2.491755429125   123.32148924     0.00000000
 Ni     3   2   1     3.463638287341   114.95384712   174.65572855
 N      4   3   2     3.569555385417    86.28645577    21.27709867
 C      5   4   3     2.792982470069   106.30689297   328.93650714
 C      6   5   4     2.881979321728   112.41998728   269.78834380
 C      7   6   5     2.638217129106   122.56904022   140.97230512
 C      8   7   6     2.633323151999   120.40267417   178.73326713
 C      9   8   7     2.627097936697   120.63079744   359.83379590
 C     10   9   8     2.630845179936   119.30341147   359.32644581
 C     11  10   9     2.626759218521   120.12204423     0.57138305
 C      5   4   3     2.653190681602   117.46277394    94.96982670
 C     13   5   4     2.657588214003   122.97451680   351.57197447
 C     14  13   5     2.628248695942   121.13166258   177.24458373
 C     15  14  13     2.628547802318   120.81734287     0.94944126
 C     16  15  14     2.635999830263   118.78636739     0.09262913
 C     17  16  15     2.620582748239   120.73859195   359.36004088
 C      4   3   2     5.340808464963   152.92856723    97.88392306
 N     19   4   3     2.810686936265    43.39927776   175.68510403
 C     20  19   4     2.828138343455   107.51135838   244.60684677
 C     21  20  19     2.804136374008   110.54206027   101.62494079
 N     22  21  20     2.414084057028   118.40651322    12.76282948
 C     23  22  21     2.756294108636   120.37846351   175.23843530
 C     24  23  22     7.504669770341    91.10654094    97.72353074
 C     25  24  23     2.844486579520    71.28057302   302.17689483
 C     26  25  24     2.671647058068   118.48006343   118.66198969
 C     27  26  25     2.693339021831   122.16989914     1.75115449
 C     28  27  26     2.586819570500   121.46719600   180.05749115
 C     29  28  27     2.677206806108   120.66669146   359.78312216
 C     30  29  28     2.583004122615   119.98085927     0.24089466
 C     31  30  29     2.690301141862   121.03534698   359.95430152
 C     32  31  30     2.634332765538   121.26573083   179.59336616
 C     33  32  31     2.632341588252   121.17805456   178.48322762
 C     34  33  32     2.692643611611   120.64978818   180.45370622
 C     35  34  33     2.580441361137   121.19548176   179.19824443
 C     36  35  34     2.679773961621   119.75660402   359.57846566
 C     37  36  35     2.584329365274   120.81215859     1.02873819
 C     26  25  24     2.667133476645   122.04229876   298.38042049
 C     20  19   4     2.899546725543   109.02707946   120.55196233
 C     40  20  19     2.840184278518   116.51450541   130.29061632
 C     41  40  20     2.673010435661   120.46464150   260.61186590
 C     42  41  40     2.697137410963   123.47467500     4.54720889
 C     43  42  41     2.586677792905   121.64641002   179.85040225
 C     44  43  42     2.677173088372   120.90119983     0.24913186
 C     45  44  43     2.580149072034   119.68939999   359.32739660
 C     46  45  44     2.690872599051   121.17354290     0.00000000
 C     47  46  45     2.632831421228   120.82692521   181.66742571
 C     48  47  46     2.632325400900   121.61265356   178.15925284
 C     49  48  47     2.690031366193   121.21176149   182.23174781
 C     50  49  48     2.581686685609   120.82859982   177.76922960
 C     51  50  49     2.677132579181   120.03564766     0.36330149
 C     52  51  50     2.585465194757   120.82779221     0.95740750
 C     41  40  20     2.671280584274   119.59374795    81.30709656
 H      6   5   4     2.080888383156   110.47258224   149.80906979
 H      8   7   6     2.052366915560   119.54948823   359.46749333
 H      9   8   7     2.054256838495   119.42130208   179.75684802
 H     10   9   8     2.052829261742   120.38628394   179.38537894
 H     11  10   9     2.053708159360   120.10823957   180.56083443
 H     12  11  10     2.053846842956   120.21404350   179.97280463
 H     14  13   5     2.056794499427   118.38308487   355.66300868
 H     15  14  13     2.054551978182   119.58756619   178.98771156
 H     16  15  14     2.051476026797   120.64324546   179.31162008
 H     17  16  15     2.054203033073   119.92764657   179.77228121
 H     18  17  16     2.055050943757   119.95586677   181.05425655
 H     19   4   3     2.080628722668   153.72388975   171.23983669
 H     19   4   3     2.060942160672    86.10594505   300.46507898
 H     19   4   3     2.064389247220    84.00378297    50.51764790
 H     21  20  19     2.075954873943   110.10744361   220.64213617
 H     21  20  19     2.079947040953   111.20753001   337.94649650
 H     25  24  23     2.055608981558    70.51349147   178.07308823
 H     22  21  20     2.068985009764   119.35449750   189.74532264
 H     24  23  22     2.071190291112   111.61317864     0.72188633
 H     24  23  22     2.066642993650   108.89743436   122.36148001
 H     24  23  22     2.066425637090   108.55240531   238.16856696
 H     25  24  23     2.071588507333    72.38960378    62.20944873
 H     25  24  23     2.071872235011   177.44295027   144.61559420
 H     28  27  26     2.048413781822   119.51096880   359.90171749
 H     29  28  27     2.051996382989   119.74492128   179.36248873
 H     30  29  28     2.052469340677   119.66164130   180.10788910
 H     31  30  29     2.055087996703   120.64617434   179.97402582
 H     33  32  31     2.056848730315   119.43969641   359.67276406
 H     35  34  33     2.054938963719   118.15008663   359.81029980
 H     36  35  34     2.052171306370   120.44233372   180.30806365
 H     37  36  35     2.052330644502   119.53114049   181.04079356
 H     38  37  36     2.046898093571   118.36884213   179.98780274
 H     40  20  19     2.063839087555   105.87030386   254.14819744
 H     40  20  19     2.062570908217   107.25257540     6.81803767
 H     43  42  41     2.048187849753   119.99980108   359.97659261
 H     44  43  42     2.052651208928   119.54619758   179.98777274
 H     45  44  43     2.051985644756   119.82120019   179.49999790
 H     46  45  44     2.054491061459   120.66649741   180.29306771
 H     48  47  46     2.056775852212   119.10211395   359.36155302
 H     50  49  48     2.054417632941   118.34721282   358.47814344
 H     51  50  49     2.052545331990   120.32137765   180.40466653
 H     52  51  50     2.050598082939   119.92067553   179.79506744
 H     53  52  51     2.053395701138   118.66215778   179.09396681

[1769529027.784361] [node236:2533191:0]     ucp_context.c:1234 UCX  WARN  transport 'ib' is not available, please use one or more of: mm, posix, self, shm, sm, sysv, tcp
[1769529027.791489] [node236:2533187:0]     ucp_context.c:1234 UCX  WARN  transport 'ib' is not available, please use one or more of: mm, posix, self, shm, sm, sysv, tcp
[1769529027.793253] [node236:2533192:0]     ucp_context.c:1234 UCX  WARN  transport 'ib' is not available, please use one or more of: mm, posix, self, shm, sm, sysv, tcp
[1769529027.797309] [node236:2533188:0]     ucp_context.c:1234 UCX  WARN  transport 'ib' is not available, please use one or more of: mm, posix, self, shm, sm, sysv, tcp
[1769529027.800076] [node236:2533186:0]     ucp_context.c:1234 UCX  WARN  transport 'ib' is not available, please use one or more of: mm, posix, self, shm, sm, sysv, tcp
[1769529027.805979] [node236:2533198:0]     ucp_context.c:1234 UCX  WARN  transport 'ib' is not available, please use one or more of: mm, posix, self, shm, sm, sysv, tcp
[1769529027.807277] [node236:2533195:0]     ucp_context.c:1234 UCX  WARN  transport 'ib' is not available, please use one or more of: mm, posix, self, shm, sm, sysv, tcp
[1769529027.814363] [node236:2533189:0]     ucp_context.c:1234 UCX  WARN  transport 'ib' is not available, please use one or more of: mm, posix, self, shm, sm, sysv, tcp


           ************************************************************
           *        Program running with 8 parallel MPI-processes     *
           *              working on a common directory               *
           ************************************************************
------------------------------------------------------------------------------
                   ___                                                        
                  /   \      - P O W E R E D   B Y -                         
                 /     \                                                     
                 |  |  |   _    _      __       _____    __    __             
                 |  |  |  | |  | |    /  \     |  _  \  |  |  /  |          
                  \  \/   | |  | |   /    \    | | | |  |  | /  /          
                 / \  \   | |__| |  /  /\  \   | |_| |  |  |/  /          
                |  |  |   |  __  | /  /__\  \  |    /   |      \           
                |  |  |   | |  | | |   __   |  |    \   |  |\   \          
                \     /   | |  | | |  |  |  |  | |\  \  |  | \   \       
                 \___/    |_|  |_| |__|  |__|  |_| \__\ |__|  \__/        
                                                                              
                      - O R C A' S   B I G   F R I E N D -                    
                                      &                                       
                       - I N T E G R A L  F E E D E R -                       
                                                                              
 v1 FN, 2020, v2 2021, v3 2022-2024                                           
------------------------------------------------------------------------------


----------------------
SHARK INTEGRAL PACKAGE
----------------------

Number of atoms                             ...     97
Number of basis functions                   ...   1280
Number of shells                            ...    624
Maximum angular momentum                    ...      2
Integral batch strategy                     ... SHARK/LIBINT Hybrid
RI-J (if used) integral strategy            ... SPLIT-RIJ (Revised 2003 algorithm where possible)
Printlevel                                  ...      1
Contraction scheme used                     ... SEGMENTED contraction
Prescreening option                         ... SCHWARTZ
   Thresh                                   ... 2.500e-11
   Tcut                                     ... 2.500e-12
   Tpresel                                  ... 2.500e-12 
Coulomb Range Separation                    ... NOT USED
Exchange Range Separation                   ... NOT USED
Multipole approximations                    ... NOT USED
Finite Nucleus Model                        ... NOT USED
CABS basis                                  ... NOT available
Auxiliary Coulomb fitting basis             ... AVAILABLE
   # of basis functions in Aux-J            ...   2152
   # of shells in Aux-J                     ...    874
   Maximum angular momentum in Aux-J        ...      4
Auxiliary J/K fitting basis                 ... NOT available
Auxiliary Correlation fitting basis         ... NOT available
Auxiliary 'external' fitting basis          ... NOT available

Checking pre-screening integrals            ... done (  0.0 sec) Dimension = 624
   => SHARK Basis and OBASIS are compatible. Storing Pre-screening
Shell pair information
Shell pair cut-off parameter TPreSel        ...   2.5e-12
Total number of shell pairs                 ...    195000
Shell pairs after pre-screening             ...    105969
Total number of primitive shell pairs       ...    731590
Primitive shell pairs kept                  ...    223556
          la=0 lb=0:  32842 shell pairs
          la=1 lb=0:  41966 shell pairs
          la=1 lb=1:  13442 shell pairs
          la=2 lb=0:  10212 shell pairs
          la=2 lb=1:   6718 shell pairs
          la=2 lb=2:    789 shell pairs

Checking whether 4 symmetric matrices of dimension 1280 fit in memory
:Max Core in MB      =  12000.00
 MB in use           =    140.29
 MB left             =  11859.71
 MB needed           =     25.02
 Data fit in memory  = YES
Calculating RI/J V-Matrix + Cholesky decomp.... done (  0.1 sec)
Calculating Nuclear repulsion               ... done (  0.0 sec) ENN=   8444.165027927258 Eh

Diagonalization of the overlap matrix:
Smallest eigenvalue                        ... 5.586e-06
Time for diagonalization                   ...    0.129 sec
Threshold for overlap eigenvalues          ... 1.000e-07
Number of eigenvalues below threshold      ... 0
Time for construction of square roots      ...    0.071 sec
Total time needed                          ...    0.205 sec

-------------------
DFT GRID GENERATION
-------------------

General Integration Accuracy     IntAcc      ... 4.388
Radial Grid Type                 RadialGrid  ... OptM3 with GC (2021)
Angular Grid (max. ang.)         AngularGrid ... 4 (Lebedev-302)
Angular grid pruning method      GridPruning ... 4 (adaptive)
Weight generation scheme         WeightScheme... mBecke (2022)
Basis function cutoff            BFCut       ... 1.0000e-11
Integration weight cutoff        WCut        ... 1.0000e-14
Partially contracted basis set               ... off
Rotationally invariant grid construction     ... off
Angular grids for H and He will be reduced by one unit
Diffuse basis detected: some atoms will have their outermost
                        angular grid increased by 1.
Core-polarized basis detected: some atoms will have their core
                               angular grid increased.

Total number of grid points                  ...   458007
Total number of batches                      ...     7213
Average number of points per batch           ...       63
Average number of grid points per atom       ...     4722
Grids setup in   3.2 sec
Initializing property integral containers    ... done (  0.0 sec)

SHARK setup successfully completed in   4.0 seconds

Maximum memory used throughout the entire STARTUP-calculation: 235.4 MB
[1769529033.408841] [node236:2533229:0]     ucp_context.c:1234 UCX  WARN  transport 'ib' is not available, please use one or more of: mm, posix, self, shm, sm, sysv, tcp
[1769529033.434132] [node236:2533230:0]     ucp_context.c:1234 UCX  WARN  transport 'ib' is not available, please use one or more of: mm, posix, self, shm, sm, sysv, tcp
[1769529033.468765] [node236:2533231:0]     ucp_context.c:1234 UCX  WARN  transport 'ib' is not available, please use one or more of: mm, posix, self, shm, sm, sysv, tcp
[1769529033.475447] [node236:2533232:0]     ucp_context.c:1234 UCX  WARN  transport 'ib' is not available, please use one or more of: mm, posix, self, shm, sm, sysv, tcp
[1769529033.492858] [node236:2533234:0]     ucp_context.c:1234 UCX  WARN  transport 'ib' is not available, please use one or more of: mm, posix, self, shm, sm, sysv, tcp
[1769529033.496717] [node236:2533236:0]     ucp_context.c:1234 UCX  WARN  transport 'ib' is not available, please use one or more of: mm, posix, self, shm, sm, sysv, tcp
[1769529033.506672] [node236:2533241:0]     ucp_context.c:1234 UCX  WARN  transport 'ib' is not available, please use one or more of: mm, posix, self, shm, sm, sysv, tcp
[1769529033.513536] [node236:2533238:0]     ucp_context.c:1234 UCX  WARN  transport 'ib' is not available, please use one or more of: mm, posix, self, shm, sm, sysv, tcp


           ************************************************************
           *        Program running with 8 parallel MPI-processes     *
           *              working on a common directory               *
           ************************************************************
Occupation numbers will be reassigned to an Aufbau configuration
             **** ENERGY FILE WAS UPDATED (2_2_confsstruct_1.en.tmp) ****
Finished Guess after   1.4 sec
Maximum memory used throughout the entire GUESS-calculation: 204.1 MB
