      -----------------------------------------------------------      
     |                   =====================                   |     
     |                           x T B                           |     
     |                   =====================                   |     
     |                         S. Grimme                         |     
     |          Mulliken Center for Theoretical Chemistry        |     
     |                    University of Bonn                     |     
      -----------------------------------------------------------      

   * xtb version 6.7.1 (edcfbbe) compiled by 'albert@albert-system' on 2024-07-22

   xtb is free software: you can redistribute it and/or modify it under
   the terms of the GNU Lesser General Public License as published by
   the Free Software Foundation, either version 3 of the License, or
   (at your option) any later version.
   
   xtb is distributed in the hope that it will be useful,
   but WITHOUT ANY WARRANTY; without even the implied warranty of
   MERCHANTABILITY or FITNESS FOR A PARTICULAR PURPOSE.  See the
   GNU Lesser General Public License for more details.
   
   Cite this work as:
   * C. Bannwarth, E. Caldeweyher, S. Ehlert, A. Hansen, P. Pracht,
     J. Seibert, S. Spicher, S. Grimme, WIREs Comput. Mol. Sci., 2020, 11,
     e01493. DOI: 10.1002/wcms.1493
   
   for GFN2-xTB:
   * C. Bannwarth, S. Ehlert and S. Grimme., J. Chem. Theory Comput., 2019,
     15, 1652-1671. DOI: 10.1021/acs.jctc.8b01176
   for GFN1-xTB:
   * S. Grimme, C. Bannwarth, P. Shushkov, J. Chem. Theory Comput., 2017,
     13, 1989-2009. DOI: 10.1021/acs.jctc.7b00118
   for GFN0-xTB:
   * P. Pracht, E. Caldeweyher, S. Ehlert, S. Grimme, ChemRxiv, 2019, preprint.
     DOI: 10.26434/chemrxiv.8326202.v1
   for GFN-FF:
   * S. Spicher and S. Grimme, Angew. Chem. Int. Ed., 2020, 59, 15665-15673.
     DOI: 10.1002/anie.202004239
   
   for ALPB and GBSA implicit solvation:
   * S. Ehlert, M. Stahn, S. Spicher, S. Grimme, J. Chem. Theory Comput.,
     2021, 17, 4250-4261. DOI: 10.1021/acs.jctc.1c00471
   
   for ddCOSMO and CPCM-X implicit solvation:
   * M. Stahn, S. Ehlert, S. Grimme, J. Phys. Chem. A,
     2023, XX, XXXX-XXXX. DOI: 10.1021/acs.jpca.3c04382
   
   for DFT-D4:
   * E. Caldeweyher, C. Bannwarth and S. Grimme, J. Chem. Phys., 2017,
     147, 034112. DOI: 10.1063/1.4993215
   * E. Caldeweyher, S. Ehlert, A. Hansen, H. Neugebauer, S. Spicher,
     C. Bannwarth and S. Grimme, J. Chem. Phys., 2019, 150, 154122.
     DOI: 10.1063/1.5090222
   * E. Caldeweyher, J.-M. Mewes, S. Ehlert and S. Grimme, Phys. Chem. Chem. Phys.
     2020, 22, 8499-8512. DOI: 10.1039/D0CP00502A
   
   for sTDA-xTB:
   * S. Grimme and C. Bannwarth, J. Chem. Phys., 2016, 145, 054103.
     DOI: 10.1063/1.4959605
   
   in the mass-spec context:
   * V. Asgeirsson, C. Bauer and S. Grimme, Chem. Sci., 2017, 8, 4879.
     DOI: 10.1039/c7sc00601b
   * J. Koopman and S. Grimme, ACS Omega 2019, 4, 12, 15120-15133.
     DOI: 10.1021/acsomega.9b02011
   
   for metadynamics refer to:
   * S. Grimme, J. Chem. Theory Comput., 2019, 155, 2847-2862
     DOI: 10.1021/acs.jctc.9b00143
   
   for SPH calculations refer to:
   * S. Spicher and S. Grimme, J. Chem. Theory Comput., 2021, 17, 1701-1714
     DOI: 10.1021/acs.jctc.0c01306
   
   for ONIOM refer to:
   * C. Plett, A. Katbashev, S. Ehlert, S. Grimme, M. Bursch,
     Phys. Chem. Chem. Phys., 2023, 25, 17860-17868. DOI: 10.1039/D3CP02178E
   
   for DIPRO refer to:
   * J. Kohn, N. Gildemeister, S. Grimme, D. Fazzi, A. Hansen,
     J. Chem. Phys., 2023, just accepted.
   
   for PTB refer to:
   * S. Grimme, M. Mueller, A. Hansen, J. Chem. Phys., 2023, 158, 124111.
     DOI: 10.1063/5.0137838
   
   with help from (in alphabetical order)
   P. Atkinson, C. Bannwarth, F. Bohle, G. Brandenburg, E. Caldeweyher
   M. Checinski, S. Dohm, S. Ehlert, S. Ehrlich, I. Gerasimov, C. Hölzer
   A. Katbashev, J. Kohn, J. Koopman, C. Lavigne, S. Lehtola, F. März, M. Müller,
   F. Musil, H. Neugebauer, J. Pisarek, C. Plett, P. Pracht, F. Pultar,
   J. Seibert, P. Shushkov, S. Spicher, M. Stahn, M. Steiner, T. Strunk,
   J. Stückrath, T. Rose, and J. Unsleber
   
 * started run on 2026/01/22 at 09:34:52.542     
   ID    Z sym.   atoms
    1    6 C      1-10, 14, 16-22, 24-29, 31, 33, 34, 36, 37
    2    7 N      11, 23, 30, 32, 35
    3   28 Ni     12
    4    8 O      13, 15
    5    1 H      38-68
constraining bond 13 12 to    1.8050000 Å, actual value:    1.9936111 Å
constraining bond 30 12 to    1.8525000 Å, actual value:    2.0175350 Å
constraining bond 11 12 to    1.8525000 Å, actual value:    2.0099926 Å
constraining bond 23 12 to    1.8525000 Å, actual value:    2.0114617 Å
constraining angle 11 12 23 to  180.0000000°, actual value:  173.5806457°
constraining angle 30 12 11 to   90.0000000°, actual value:   84.2424446°
constraining angle 30 12 13 to  180.0000000°, actual value:  177.5482617°

           -------------------------------------------------
          |                Calculation Setup                |
           -------------------------------------------------

          program call               : /home/henryteahan/opt/xtb-6.7.1/xtb-dist/bin/xtb sep_embed_final.xyz --opt verytight --iterations 1000 --input constrain2.inp --gfn2 --parallel 8 --chrg 0
          coordinate file            : sep_embed_final.xyz
          omp threads                :                     8


molecular fragmentation (1/2 indicates fragments):
11111111111111122222222222222222222221111111122222222222222222222222
# atoms in fragment 1/2:    23    45
 fragment masses (1/2) :      244.88      295.40
CMA distance (Bohr)    :   6.615
constraining FC (au)   :  0.2000

           -------------------------------------------------
          |                 G F N 2 - x T B                 |
           -------------------------------------------------

        Reference                      10.1021/acs.jctc.8b01176
      * Hamiltonian:
        H0-scaling (s, p, d)           1.850000    2.230000    2.230000
        zeta-weighting                 0.500000
      * Dispersion:
        s8                             2.700000
        a1                             0.520000
        a2                             5.000000
        s9                             5.000000
      * Repulsion:
        kExp                           1.500000    1.000000
        rExp                           1.000000
      * Coulomb:
        alpha                          2.000000
        third order                    shell-resolved
        anisotropic                    true
        a3                             3.000000
        a5                             4.000000
        cn-shift                       1.200000
        cn-exp                         4.000000
        max-rad                        5.000000


          ...................................................
          :                      SETUP                      :
          :.................................................:
          :  # basis functions                 185          :
          :  # atomic orbitals                 184          :
          :  # shells                          106          :
          :  # electrons                       194          :
          :  max. iterations                  1000          :
          :  Hamiltonian                  GFN2-xTB          :
          :  restarted?                      false          :
          :  GBSA solvation                  false          :
          :  PC potential                    false          :
          :  electronic temp.          300.0000000     K    :
          :  accuracy                    1.0000000          :
          :  -> integral cutoff          0.2500000E+02      :
          :  -> integral neglect         0.1000000E-07      :
          :  -> SCF convergence          0.1000000E-05 Eh   :
          :  -> wf. convergence          0.1000000E-03 e    :
          :  Broyden damping             0.4000000          :
          :  net charge                          0          :
          :  unpaired electrons                  0          :
          ...................................................

 iter      E             dE          RMSdq      gap      omega  full diag
   1   -106.6873559 -0.106687E+03  0.528E+00    0.28       0.0  T
   2   -106.9082896 -0.220934E+00  0.246E+00    0.84       1.0  T
   3   -106.6429555  0.265334E+00  0.284E+00    0.57       1.0  T
   4   -106.9430760 -0.300120E+00  0.113E+00    0.86       1.0  T
   5   -106.9976361 -0.545601E-01  0.640E-01    0.56       1.0  T
   6   -107.0134410 -0.158049E-01  0.400E-01    0.43       1.0  T
   7   -107.0161398 -0.269878E-02  0.287E-01    0.33       1.0  T
   8   -107.0162887 -0.148872E-03  0.155E-01    0.25       1.0  T
   9   -107.0145442  0.174441E-02  0.221E-01    0.21       1.0  T
  10   -107.0171620 -0.261774E-02  0.668E-02    0.25       1.0  T
  11   -107.0171540  0.802316E-05  0.523E-02    0.26       1.0  T
  12   -107.0171795 -0.255553E-04  0.423E-02    0.27       1.0  T
  13   -107.0172325 -0.530235E-04  0.159E-02    0.27       1.0  T
  14   -107.0172340 -0.148835E-05  0.129E-02    0.27       1.0  T
  15   -107.0172373 -0.325413E-05  0.712E-03    0.27       1.7  T
  16   -107.0172394 -0.210504E-05  0.133E-03    0.27       9.1  T
  17   -107.0172394 -0.239826E-07  0.872E-04    0.27      13.9  T
  18   -107.0172394 -0.299451E-08  0.472E-04    0.27      25.7  T

   *** convergence criteria satisfied after 18 iterations ***

         #    Occupation            Energy/Eh            Energy/eV
      -------------------------------------------------------------
         1        2.0000           -0.6883135             -18.7300
       ...           ...                  ...                  ...
        91        2.0000           -0.3683400             -10.0230
        92        2.0000           -0.3548636              -9.6563
        93        2.0000           -0.3532695              -9.6130
        94        2.0000           -0.3512381              -9.5577
        95        2.0000           -0.3475560              -9.4575
        96        2.0000           -0.3398145              -9.2468
        97        1.9885           -0.3161018              -8.6016 (HOMO)
        98        0.0115           -0.3063117              -8.3352 (LUMO)
        99                         -0.2843566              -7.7377
       100                         -0.2471517              -6.7253
       101                         -0.2462539              -6.7009
       102                         -0.2144215              -5.8347
       ...                                ...                  ...
       184                          1.4262682              38.8107
      -------------------------------------------------------------
                  HL-Gap            0.0097900 Eh            0.2664 eV
             Fermi-level           -0.3112067 Eh           -8.4684 eV

 SCC (total)                   0 d,  0 h,  0 min,  0.116 sec
 SCC setup                      ...        0 min,  0.000 sec (  0.268%)
 Dispersion                     ...        0 min,  0.001 sec (  0.897%)
 classical contributions        ...        0 min,  0.000 sec (  0.044%)
 integral evaluation            ...        0 min,  0.007 sec (  5.614%)
 iterations                     ...        0 min,  0.095 sec ( 81.537%)
 molecular gradient             ...        0 min,  0.013 sec ( 11.121%)
 printout                       ...        0 min,  0.001 sec (  0.483%)

         :::::::::::::::::::::::::::::::::::::::::::::::::::::
         ::                     SUMMARY                     ::
         :::::::::::::::::::::::::::::::::::::::::::::::::::::
         :: total energy            -105.393060716082 Eh    ::
         :: gradient norm              0.270917605030 Eh/a0 ::
         :: HOMO-LUMO gap              0.266399891365 eV    ::
         ::.................................................::
         :: SCC energy              -107.013572807280 Eh    ::
         :: -> isotropic ES            0.117418106519 Eh    ::
         :: -> anisotropic ES          0.006957684432 Eh    ::
         :: -> anisotropic XC          0.049624316618 Eh    ::
         :: -> dispersion             -0.099925894306 Eh    ::
         :: repulsion energy           1.534992971646 Eh    ::
         :: add. restraining           0.085519119551 Eh    ::
         :: total charge              -0.000000000001 e     ::
         :::::::::::::::::::::::::::::::::::::::::::::::::::::

      ----------------------------------------------------------- 
     |                   =====================                   |
     |                        A N C O P T                        |
     |                   =====================                   |
     |               Approximate Normal Coordinate               |
     |                Rational Function Optimizer                |
      ----------------------------------------------------------- 
      ----------------------------------------------------------- 
     |                   =====================                   |
     |                        A N C O P T                        |
     |                   =====================                   |
     |               Approximate Normal Coordinate               |
     |                Rational Function Optimizer                |
      ----------------------------------------------------------- 

          ...................................................
          :                      SETUP                      :
          :.................................................:
          :   optimization level         verytight          :
          :   max. optcycles                  1360          :
          :   ANC micro-cycles                  20          :
          :   degrees of freedom               198          :
          :.................................................:
          :   RF solver                   davidson          :
          :   write xtbopt.log                true          :
          :   linear?                        false          :
          :   energy convergence         0.1000000E-06 Eh   :
          :   grad. convergence          0.2000000E-03 Eh/α :
          :   maxmium RF displ.          1.0000000          :
          :   Hlow (freq-cutoff)         0.1000000E-01      :
          :   Hmax (freq-cutoff)         5.0000000          :
          :   S6 in model hess.         20.0000000          :
          ...................................................

generating ANC from exact Hessian ...
Using Lindh-Hessian (1995)
 Shifting diagonal of input Hessian by   9.776669842662757E-003
 Lowest  eigenvalues of input Hessian
    0.000000    0.000000    0.000000    0.000000    0.000000    0.000000
    0.010000    0.010059    0.010275    0.010520    0.010733    0.010898
    0.011059    0.011131    0.011200    0.011421    0.012206    0.012337
 Highest eigenvalues
    2.060340    2.072231    2.117983    2.138887    2.284729    2.352085
 

........................................................................
.............................. CYCLE    1 ..............................
........................................................................

 iter      E             dE          RMSdq      gap      omega  full diag
   1   -107.0172394 -0.107017E+03  0.519E-04    0.27       0.0  T
   2   -107.0172393  0.148011E-06  0.154E-03    0.27       7.9  T
   3   -107.0172394 -0.161642E-06  0.164E-04    0.27      73.8  T
   4   -107.0172394 -0.241286E-09  0.108E-04    0.27     111.8  T
     SCC iter.                  ...        0 min,  0.025 sec
     gradient                   ...        0 min,  0.014 sec
 * total energy  :  -105.3930607 Eh     change       -0.8314672E-08 Eh
   gradient norm :     0.2709226 Eh/α   predicted     0.0000000E+00 (-100.00%)
   displ. norm   :     0.4399059 α      lambda       -0.9914915E-01
   maximum displ.:     0.1311743 α      in ANC's #139, #132, #144, ...

........................................................................
.............................. CYCLE    2 ..............................
........................................................................

 iter      E             dE          RMSdq      gap      omega  full diag
   1   -107.0045482 -0.107005E+03  0.504E-01    0.52       0.0  T
   2   -106.9488254  0.557228E-01  0.903E-01    0.24       1.0  T
   3   -107.0113362 -0.625108E-01  0.324E-01    0.54       1.0  T
   4   -107.0133839 -0.204764E-02  0.197E-01    0.43       1.0  T
   5   -107.0149796 -0.159570E-02  0.863E-02    0.38       1.0  T
   6   -107.0150507 -0.711622E-04  0.626E-02    0.34       1.0  T
   7   -107.0151324 -0.816269E-04  0.299E-02    0.33       1.0  T
   8   -107.0151636 -0.312348E-04  0.164E-02    0.34       1.0  T
   9   -107.0151638 -0.244468E-06  0.115E-02    0.35       1.1  T
  10   -107.0151663 -0.245875E-05  0.505E-03    0.35       2.4  T
  11   -107.0151667 -0.436042E-06  0.308E-03    0.35       3.9  T
  12   -107.0151667 -0.224165E-07  0.182E-03    0.35       6.7  T
  13   -107.0151668 -0.376561E-07  0.105E-03    0.35      11.5  T
  14   -107.0151668 -0.127584E-07  0.543E-04    0.35      22.3  T
  15   -107.0151668 -0.537646E-08  0.193E-04    0.35      62.9  T
     SCC iter.                  ...        0 min,  0.078 sec
     gradient                   ...        0 min,  0.013 sec
 * total energy  :  -105.4633646 Eh     change       -0.7030388E-01 Eh
   gradient norm :     0.1059420 Eh/α   predicted    -0.5917428E-01 ( -15.83%)
   displ. norm   :     0.4354285 α      lambda       -0.3214950E-01
   maximum displ.:     0.1036479 α      in ANC's #47, #49, #19, ...

........................................................................
.............................. CYCLE    3 ..............................
........................................................................

 iter      E             dE          RMSdq      gap      omega  full diag
   1   -107.0198366 -0.107020E+03  0.330E-01    0.51       0.0  T
   2   -107.0165428  0.329376E-02  0.336E-01    0.30       1.0  T
   3   -107.0231584 -0.661555E-02  0.173E-01    0.46       1.0  T
   4   -107.0235212 -0.362834E-03  0.751E-02    0.35       1.0  T
   5   -107.0236727 -0.151494E-03  0.464E-02    0.38       1.0  T
   6   -107.0237237 -0.510222E-04  0.290E-02    0.38       1.0  T
   7   -107.0237458 -0.220631E-04  0.131E-02    0.39       1.0  T
   8   -107.0237490 -0.322527E-05  0.702E-03    0.39       1.7  T
   9   -107.0237497 -0.698675E-06  0.468E-03    0.39       2.6  T
  10   -107.0237500 -0.298278E-06  0.233E-03    0.39       5.2  T
  11   -107.0237501 -0.856809E-07  0.123E-03    0.39       9.8  T
  12   -107.0237501 -0.127206E-07  0.607E-04    0.39      20.0  T
  13   -107.0237501 -0.508425E-08  0.371E-04    0.39      32.7  T
     SCC iter.                  ...        0 min,  0.069 sec
     gradient                   ...        0 min,  0.012 sec
 * total energy  :  -105.4828609 Eh     change       -0.1949628E-01 Eh
   gradient norm :     0.0260609 Eh/α   predicted    -0.1912416E-01 (  -1.91%)
   displ. norm   :     0.4049959 α      lambda       -0.6128453E-02
   maximum displ.:     0.1563069 α      in ANC's #19, #14, #34, ...

........................................................................
.............................. CYCLE    4 ..............................
........................................................................

 iter      E             dE          RMSdq      gap      omega  full diag
   1   -107.0395249 -0.107040E+03  0.144E-01    0.45       0.0  T
   2   -107.0394669  0.579923E-04  0.108E-01    0.41       1.0  T
   3   -107.0395357 -0.688036E-04  0.799E-02    0.45       1.0  T
   4   -107.0397620 -0.226349E-03  0.196E-02    0.42       1.0  T
   5   -107.0397679 -0.582068E-05  0.136E-02    0.43       1.0  T
   6   -107.0397682 -0.390204E-06  0.865E-03    0.42       1.4  T
   7   -107.0397697 -0.144482E-05  0.405E-03    0.43       3.0  T
   8   -107.0397700 -0.343496E-06  0.256E-03    0.43       4.7  T
   9   -107.0397701 -0.991387E-07  0.150E-03    0.43       8.1  T
  10   -107.0397702 -0.214159E-07  0.755E-04    0.43      16.1  T
  11   -107.0397702 -0.922320E-08  0.309E-04    0.43      39.3  T
     SCC iter.                  ...        0 min,  0.055 sec
     gradient                   ...        0 min,  0.012 sec
 * total energy  :  -105.4872560 Eh     change       -0.4395085E-02 Eh
   gradient norm :     0.0154195 Eh/α   predicted    -0.3567549E-02 ( -18.83%)
   displ. norm   :     0.4735012 α      lambda       -0.3480222E-02
   maximum displ.:     0.1784714 α      in ANC's #14, #19, #34, ...

........................................................................
.............................. CYCLE    5 ..............................
........................................................................

 iter      E             dE          RMSdq      gap      omega  full diag
   1   -107.0513634 -0.107051E+03  0.134E-01    0.45       0.0  T
   2   -107.0514049 -0.414739E-04  0.910E-02    0.47       1.0  T
   3   -107.0512587  0.146216E-03  0.523E-02    0.44       1.0  T
   4   -107.0514433 -0.184631E-03  0.193E-02    0.46       1.0  T
   5   -107.0514569 -0.136051E-04  0.121E-02    0.46       1.0  T
   6   -107.0514573 -0.397387E-06  0.758E-03    0.46       1.6  T
   7   -107.0514588 -0.153962E-05  0.320E-03    0.46       3.8  T
   8   -107.0514590 -0.211654E-06  0.187E-03    0.46       6.5  T
   9   -107.0514591 -0.405420E-07  0.116E-03    0.46      10.5  T
  10   -107.0514591 -0.114987E-07  0.555E-04    0.46      21.8  T
  11   -107.0514591 -0.545498E-08  0.252E-04    0.46      48.1  T
     SCC iter.                  ...        0 min,  0.056 sec
     gradient                   ...        0 min,  0.012 sec
 * total energy  :  -105.4896031 Eh     change       -0.2347170E-02 Eh
   gradient norm :     0.0151924 Eh/α   predicted    -0.2130272E-02 (  -9.24%)
   displ. norm   :     0.4593098 α      lambda       -0.1984054E-02
   maximum displ.:     0.2006344 α      in ANC's #14, #19, #15, ...

........................................................................
.............................. CYCLE    6 ..............................
........................................................................

 iter      E             dE          RMSdq      gap      omega  full diag
   1   -107.0591923 -0.107059E+03  0.981E-02    0.47       0.0  T
   2   -107.0592437 -0.514570E-04  0.655E-02    0.50       1.0  T
   3   -107.0592259  0.177941E-04  0.372E-02    0.47       1.0  T
   4   -107.0592647 -0.387215E-04  0.161E-02    0.49       1.0  T
   5   -107.0592753 -0.106595E-04  0.809E-03    0.49       1.5  T
   6   -107.0592756 -0.227719E-06  0.526E-03    0.49       2.3  T
   7   -107.0592754  0.129725E-06  0.301E-03    0.49       4.0  T
   8   -107.0592759 -0.454890E-06  0.127E-03    0.49       9.5  T
   9   -107.0592759 -0.204274E-07  0.745E-04    0.49      16.3  T
  10   -107.0592759 -0.681933E-08  0.449E-04    0.49      27.0  T
     SCC iter.                  ...        0 min,  0.051 sec
     gradient                   ...        0 min,  0.012 sec
 * total energy  :  -105.4908980 Eh     change       -0.1294870E-02 Eh
   gradient norm :     0.0116488 Eh/α   predicted    -0.1201342E-02 (  -7.22%)
   displ. norm   :     0.4696248 α      lambda       -0.1421042E-02
   maximum displ.:     0.1907764 α      in ANC's #14, #6, #8, ...

........................................................................
.............................. CYCLE    7 ..............................
........................................................................

 iter      E             dE          RMSdq      gap      omega  full diag
   1   -107.0587837 -0.107059E+03  0.917E-02    0.49       0.0  T
   2   -107.0588052 -0.214750E-04  0.619E-02    0.52       1.0  T
   3   -107.0587761  0.290379E-04  0.398E-02    0.48       1.0  T
   4   -107.0588361 -0.600249E-04  0.131E-02    0.50       1.0  T
   5   -107.0588417 -0.557588E-05  0.826E-03    0.50       1.5  T
   6   -107.0588421 -0.346371E-06  0.522E-03    0.50       2.3  T
   7   -107.0588426 -0.577017E-06  0.197E-03    0.50       6.2  T
   8   -107.0588428 -0.148836E-06  0.880E-04    0.50      13.8  T
   9   -107.0588428 -0.584572E-08  0.496E-04    0.50      24.5  T
     SCC iter.                  ...        0 min,  0.047 sec
     gradient                   ...        0 min,  0.012 sec
 * total energy  :  -105.4919679 Eh     change       -0.1069865E-02 Eh
   gradient norm :     0.0103342 Eh/α   predicted    -0.8672207E-03 ( -18.94%)
   displ. norm   :     0.5207225 α      lambda       -0.1264205E-02
   maximum displ.:     0.2000663 α      in ANC's #8, #6, #14, ...

........................................................................
.............................. CYCLE    8 ..............................
........................................................................

 iter      E             dE          RMSdq      gap      omega  full diag
   1   -107.0577545 -0.107058E+03  0.865E-02    0.49       0.0  T
   2   -107.0577638 -0.930807E-05  0.546E-02    0.52       1.0  T
   3   -107.0577055  0.583056E-04  0.385E-02    0.49       1.0  T
   4   -107.0577846 -0.791071E-04  0.929E-03    0.51       1.3  T
   5   -107.0577872 -0.256261E-05  0.657E-03    0.51       1.8  T
   6   -107.0577875 -0.288477E-06  0.394E-03    0.51       3.1  T
   7   -107.0577878 -0.321661E-06  0.155E-03    0.51       7.8  T
   8   -107.0577879 -0.587684E-07  0.787E-04    0.51      15.4  T
   9   -107.0577879 -0.778118E-08  0.378E-04    0.51      32.1  T
     SCC iter.                  ...        0 min,  0.046 sec
     gradient                   ...        0 min,  0.012 sec
 * total energy  :  -105.4929510 Eh     change       -0.9831535E-03 Eh
   gradient norm :     0.0086039 Eh/α   predicted    -0.8034962E-03 ( -18.27%)
   displ. norm   :     0.5452947 α      lambda       -0.1076369E-02
   maximum displ.:     0.2268809 α      in ANC's #8, #6, #13, ...

........................................................................
.............................. CYCLE    9 ..............................
........................................................................

 iter      E             dE          RMSdq      gap      omega  full diag
   1   -107.0560037 -0.107056E+03  0.922E-02    0.50       0.0  T
   2   -107.0560147 -0.109614E-04  0.565E-02    0.50       1.0  T
   3   -107.0559729  0.418189E-04  0.273E-02    0.49       1.0  T
   4   -107.0560220 -0.491484E-04  0.893E-03    0.50       1.4  T
   5   -107.0560233 -0.121894E-05  0.648E-03    0.50       1.9  T
   6   -107.0560234 -0.996411E-07  0.293E-03    0.50       4.1  T
   7   -107.0560235 -0.186536E-06  0.156E-03    0.50       7.8  T
   8   -107.0560236 -0.538207E-07  0.969E-04    0.50      12.5  T
   9   -107.0560236 -0.175492E-07  0.514E-04    0.50      23.6  T
     SCC iter.                  ...        0 min,  0.046 sec
     gradient                   ...        0 min,  0.012 sec
 * total energy  :  -105.4938185 Eh     change       -0.8674953E-03 Eh
   gradient norm :     0.0092362 Eh/α   predicted    -0.6982257E-03 ( -19.51%)
   displ. norm   :     0.5870566 α      lambda       -0.1067658E-02
   maximum displ.:     0.2420144 α      in ANC's #8, #6, #1, ...

........................................................................
.............................. CYCLE   10 ..............................
........................................................................

 iter      E             dE          RMSdq      gap      omega  full diag
   1   -107.0559943 -0.107056E+03  0.102E-01    0.49       0.0  T
   2   -107.0560051 -0.108458E-04  0.628E-02    0.49       1.0  T
   3   -107.0559330  0.721714E-04  0.329E-02    0.50       1.0  T
   4   -107.0560106 -0.776530E-04  0.128E-02    0.49       1.0  T
   5   -107.0560173 -0.671478E-05  0.747E-03    0.49       1.6  T
   6   -107.0560175 -0.162083E-06  0.407E-03    0.49       3.0  T
   7   -107.0560178 -0.257717E-06  0.185E-03    0.49       6.5  T
   8   -107.0560178 -0.650429E-07  0.107E-03    0.49      11.3  T
   9   -107.0560178 -0.145553E-07  0.531E-04    0.49      22.8  T
  10   -107.0560178 -0.594468E-08  0.247E-04    0.49      49.2  T
     SCC iter.                  ...        0 min,  0.052 sec
     gradient                   ...        0 min,  0.012 sec
 * total energy  :  -105.4947101 Eh     change       -0.8915321E-03 Eh
   gradient norm :     0.0094499 Eh/α   predicted    -0.7178186E-03 ( -19.48%)
   displ. norm   :     0.6386934 α      lambda       -0.1119537E-02
   maximum displ.:     0.2605939 α      in ANC's #1, #8, #13, ...

........................................................................
.............................. CYCLE   11 ..............................
........................................................................

 iter      E             dE          RMSdq      gap      omega  full diag
   1   -107.0569256 -0.107057E+03  0.114E-01    0.49       0.0  T
   2   -107.0569334 -0.781980E-05  0.724E-02    0.47       1.0  T
   3   -107.0567954  0.138028E-03  0.485E-02    0.49       1.0  T
   4   -107.0569590 -0.163635E-03  0.146E-02    0.48       1.0  T
   5   -107.0569666 -0.756200E-05  0.897E-03    0.48       1.4  T
   6   -107.0569669 -0.292204E-06  0.382E-03    0.48       3.2  T
   7   -107.0569671 -0.262904E-06  0.193E-03    0.48       6.3  T
   8   -107.0569672 -0.522131E-07  0.106E-03    0.48      11.5  T
   9   -107.0569672 -0.973688E-08  0.588E-04    0.48      20.6  T
  10   -107.0569672 -0.830333E-08  0.244E-04    0.48      49.7  T
     SCC iter.                  ...        0 min,  0.051 sec
     gradient                   ...        0 min,  0.012 sec
 * total energy  :  -105.4956519 Eh     change       -0.9418818E-03 Eh
   gradient norm :     0.0090295 Eh/α   predicted    -0.7881095E-03 ( -16.33%)
   displ. norm   :     0.6493705 α      lambda       -0.1052598E-02
   maximum displ.:     0.2998627 α      in ANC's #1, #3, #8, ...

........................................................................
.............................. CYCLE   12 ..............................
........................................................................

 iter      E             dE          RMSdq      gap      omega  full diag
   1   -107.0596931 -0.107060E+03  0.113E-01    0.48       0.0  T
   2   -107.0596971 -0.391984E-05  0.721E-02    0.46       1.0  T
   3   -107.0595535  0.143580E-03  0.504E-02    0.48       1.0  T
   4   -107.0597308 -0.177339E-03  0.133E-02    0.47       1.0  T
   5   -107.0597366 -0.572880E-05  0.848E-03    0.47       1.4  T
   6   -107.0597368 -0.267626E-06  0.342E-03    0.47       3.5  T
   7   -107.0597371 -0.239937E-06  0.171E-03    0.47       7.1  T
   8   -107.0597371 -0.303281E-07  0.963E-04    0.47      12.6  T
   9   -107.0597371 -0.894741E-08  0.491E-04    0.47      24.7  T
     SCC iter.                  ...        0 min,  0.047 sec
     gradient                   ...        0 min,  0.012 sec
 * total energy  :  -105.4965299 Eh     change       -0.8779979E-03 Eh
   gradient norm :     0.0082908 Eh/α   predicted    -0.7482260E-03 ( -14.78%)
   displ. norm   :     0.6720777 α      lambda       -0.9294704E-03
   maximum displ.:     0.3366868 α      in ANC's #1, #3, #8, ...

........................................................................
.............................. CYCLE   13 ..............................
........................................................................

 iter      E             dE          RMSdq      gap      omega  full diag
   1   -107.0594076 -0.107059E+03  0.114E-01    0.48       0.0  T
   2   -107.0594150 -0.737809E-05  0.716E-02    0.46       1.0  T
   3   -107.0592579  0.157097E-03  0.478E-02    0.48       1.0  T
   4   -107.0594404 -0.182509E-03  0.125E-02    0.47       1.0  T
   5   -107.0594448 -0.437336E-05  0.794E-03    0.47       1.5  T
   6   -107.0594450 -0.168260E-06  0.387E-03    0.47       3.1  T
   7   -107.0594452 -0.272783E-06  0.194E-03    0.47       6.3  T
   8   -107.0594453 -0.754155E-07  0.113E-03    0.47      10.8  T
   9   -107.0594453 -0.100572E-07  0.668E-04    0.47      18.1  T
  10   -107.0594453 -0.714437E-08  0.293E-04    0.47      41.4  T
     SCC iter.                  ...        0 min,  0.051 sec
     gradient                   ...        0 min,  0.012 sec
 * total energy  :  -105.4973153 Eh     change       -0.7853238E-03 Eh
   gradient norm :     0.0091187 Eh/α   predicted    -0.6746508E-03 ( -14.09%)
   displ. norm   :     0.6426949 α      lambda       -0.9595770E-03
   maximum displ.:     0.3610321 α      in ANC's #1, #3, #8, ...

........................................................................
.............................. CYCLE   14 ..............................
........................................................................

 iter      E             dE          RMSdq      gap      omega  full diag
   1   -107.0657791 -0.107066E+03  0.102E-01    0.47       0.0  T
   2   -107.0657878 -0.868445E-05  0.625E-02    0.46       1.0  T
   3   -107.0656988  0.889275E-04  0.363E-02    0.48       1.0  T
   4   -107.0657976 -0.987276E-04  0.990E-03    0.47       1.2  T
   5   -107.0658015 -0.390257E-05  0.558E-03    0.47       2.2  T
   6   -107.0658015 -0.364995E-07  0.285E-03    0.47       4.3  T
   7   -107.0658016 -0.129850E-06  0.136E-03    0.47       8.9  T
   8   -107.0658017 -0.334987E-07  0.772E-04    0.47      15.7  T
   9   -107.0658017 -0.434181E-08  0.431E-04    0.47      28.1  T
     SCC iter.                  ...        0 min,  0.048 sec
     gradient                   ...        0 min,  0.012 sec
 * total energy  :  -105.4980856 Eh     change       -0.7702981E-03 Eh
   gradient norm :     0.0101278 Eh/α   predicted    -0.6779645E-03 ( -11.99%)
   displ. norm   :     0.7303543 α      lambda       -0.1022311E-02
   maximum displ.:     0.4111327 α      in ANC's #1, #3, #8, ...

........................................................................
.............................. CYCLE   15 ..............................
........................................................................

 iter      E             dE          RMSdq      gap      omega  full diag
   1   -107.0623368 -0.107062E+03  0.118E-01    0.47       0.0  T
   2   -107.0623562 -0.193636E-04  0.713E-02    0.48       1.0  T
   3   -107.0622979  0.582787E-04  0.319E-02    0.46       1.0  T
   4   -107.0623648 -0.668650E-04  0.976E-03    0.48       1.2  T
   5   -107.0623676 -0.281855E-05  0.601E-03    0.47       2.0  T
   6   -107.0623676  0.240492E-07  0.403E-03    0.47       3.0  T
   7   -107.0623679 -0.330289E-06  0.159E-03    0.48       7.6  T
   8   -107.0623680 -0.911064E-07  0.969E-04    0.47      12.5  T
   9   -107.0623680 -0.106225E-07  0.601E-04    0.47      20.2  T
     SCC iter.                  ...        0 min,  0.048 sec
     gradient                   ...        0 min,  0.012 sec
 * total energy  :  -105.4989959 Eh     change       -0.9103131E-03 Eh
   gradient norm :     0.0104360 Eh/α   predicted    -0.7838158E-03 ( -13.90%)
   displ. norm   :     0.6891260 α      lambda       -0.1276232E-02
   maximum displ.:     0.4169957 α      in ANC's #1, #3, #8, ...

........................................................................
.............................. CYCLE   16 ..............................
........................................................................

 iter      E             dE          RMSdq      gap      omega  full diag
   1   -107.0631476 -0.107063E+03  0.109E-01    0.49       0.0  T
   2   -107.0631693 -0.216825E-04  0.670E-02    0.50       1.0  T
   3   -107.0631028  0.665019E-04  0.392E-02    0.47       1.0  T
   4   -107.0631803 -0.775823E-04  0.113E-02    0.49       1.1  T
   5   -107.0631846 -0.427238E-05  0.661E-03    0.49       1.8  T
   6   -107.0631849 -0.273189E-06  0.404E-03    0.49       3.0  T
   7   -107.0631852 -0.265843E-06  0.167E-03    0.49       7.3  T
   8   -107.0631852 -0.871102E-07  0.745E-04    0.49      16.3  T
   9   -107.0631853 -0.868005E-08  0.456E-04    0.49      26.6  T
     SCC iter.                  ...        0 min,  0.045 sec
     gradient                   ...        0 min,  0.012 sec
 * total energy  :  -105.5001045 Eh     change       -0.1108609E-02 Eh
   gradient norm :     0.0161481 Eh/α   predicted    -0.9411499E-03 ( -15.11%)
   displ. norm   :     0.7761855 α      lambda       -0.1589056E-02
   maximum displ.:     0.4722900 α      in ANC's #1, #3, #10, ...

........................................................................
.............................. CYCLE   17 ..............................
........................................................................

 iter      E             dE          RMSdq      gap      omega  full diag
   1   -107.0622432 -0.107062E+03  0.125E-01    0.50       0.0  T
   2   -107.0622725 -0.293339E-04  0.797E-02    0.51       1.0  T
   3   -107.0621563  0.116201E-03  0.566E-02    0.49       1.0  T
   4   -107.0623066 -0.150247E-03  0.176E-02    0.50       1.0  T
   5   -107.0623168 -0.101921E-04  0.969E-03    0.50       1.3  T
   6   -107.0623170 -0.258756E-06  0.612E-03    0.50       2.0  T
   7   -107.0623177 -0.709175E-06  0.208E-03    0.50       5.8  T
   8   -107.0623178 -0.110193E-06  0.115E-03    0.50      10.6  T
   9   -107.0623178 -0.118942E-07  0.677E-04    0.50      17.9  T
  10   -107.0623179 -0.104291E-07  0.312E-04    0.50      38.9  T
     SCC iter.                  ...        0 min,  0.052 sec
     gradient                   ...        0 min,  0.013 sec
 * total energy  :  -105.5015569 Eh     change       -0.1452428E-02 Eh
   gradient norm :     0.0173930 Eh/α   predicted    -0.1273196E-02 ( -12.34%)
   displ. norm   :     0.7590950 α      lambda       -0.1999969E-02
   maximum displ.:     0.4493946 α      in ANC's #1, #3, #13, ...

........................................................................
.............................. CYCLE   18 ..............................
........................................................................

 iter      E             dE          RMSdq      gap      omega  full diag
   1   -107.0644176 -0.107064E+03  0.126E-01    0.52       0.0  T
   2   -107.0644413 -0.237573E-04  0.871E-02    0.53       1.0  T
   3   -107.0643570  0.843322E-04  0.634E-02    0.51       1.0  T
   4   -107.0645171 -0.160163E-03  0.205E-02    0.52       1.0  T
   5   -107.0645299 -0.127903E-04  0.109E-02    0.52       1.1  T
   6   -107.0645303 -0.410780E-06  0.657E-03    0.52       1.8  T
   7   -107.0645311 -0.755658E-06  0.259E-03    0.52       4.7  T
   8   -107.0645312 -0.102637E-06  0.145E-03    0.52       8.4  T
   9   -107.0645312 -0.165767E-07  0.880E-04    0.52      13.8  T
  10   -107.0645312 -0.156343E-07  0.422E-04    0.52      28.7  T
     SCC iter.                  ...        0 min,  0.052 sec
     gradient                   ...        0 min,  0.012 sec
 * total energy  :  -105.5032581 Eh     change       -0.1701188E-02 Eh
   gradient norm :     0.0195191 Eh/α   predicted    -0.1576195E-02 (  -7.35%)
   displ. norm   :     0.7770936 α      lambda       -0.1972786E-02
   maximum displ.:     0.4735673 α      in ANC's #1, #3, #10, ...

........................................................................
.............................. CYCLE   19 ..............................
........................................................................

 iter      E             dE          RMSdq      gap      omega  full diag
   1   -107.0621036 -0.107062E+03  0.138E-01    0.53       0.0  T
   2   -107.0621424 -0.387980E-04  0.924E-02    0.54       1.0  T
   3   -107.0619924  0.150009E-03  0.593E-02    0.51       1.0  T
   4   -107.0621606 -0.168171E-03  0.220E-02    0.53       1.0  T
   5   -107.0621785 -0.178990E-04  0.104E-02    0.53       1.2  T
   6   -107.0621780  0.465122E-06  0.662E-03    0.52       1.8  T
   7   -107.0621793 -0.128948E-05  0.256E-03    0.53       4.7  T
   8   -107.0621794 -0.125831E-06  0.150E-03    0.53       8.1  T
   9   -107.0621795 -0.940420E-08  0.865E-04    0.53      14.0  T
  10   -107.0621795 -0.194480E-07  0.376E-04    0.53      32.3  T
     SCC iter.                  ...        0 min,  0.053 sec
     gradient                   ...        0 min,  0.012 sec
 * total energy  :  -105.5049665 Eh     change       -0.1708366E-02 Eh
   gradient norm :     0.0216264 Eh/α   predicted    -0.1582043E-02 (  -7.39%)
   displ. norm   :     0.6348335 α      lambda       -0.2997015E-02
   maximum displ.:     0.3036430 α      in ANC's #1, #13, #15, ...

........................................................................
.............................. CYCLE   20 ..............................
........................................................................

 iter      E             dE          RMSdq      gap      omega  full diag
   1   -107.0760433 -0.107076E+03  0.140E-01    0.54       0.0  T
   2   -107.0760783 -0.350355E-04  0.916E-02    0.53       1.0  T
   3   -107.0758831  0.195202E-03  0.565E-02    0.52       1.0  T
   4   -107.0761037 -0.220601E-03  0.185E-02    0.53       1.0  T
   5   -107.0761166 -0.128275E-04  0.863E-03    0.53       1.4  T
   6   -107.0761172 -0.577275E-06  0.433E-03    0.53       2.8  T
   7   -107.0761175 -0.373241E-06  0.159E-03    0.53       7.6  T
   8   -107.0761176 -0.792606E-07  0.639E-04    0.53      19.0  T
   9   -107.0761176 -0.283727E-08  0.354E-04    0.53      34.2  T
     SCC iter.                  ...        0 min,  0.049 sec
     gradient                   ...        0 min,  0.013 sec
 * total energy  :  -105.5060145 Eh     change       -0.1048043E-02 Eh
   gradient norm :     0.0295805 Eh/α   predicted    -0.2102419E-02 ( 100.60%)
   displ. norm   :     0.6290025 α      lambda       -0.2549208E-02
   maximum displ.:     0.3873920 α      in ANC's #1, #3, #10, ...
 * RMSD in coord.:     1.0264534 α      energy gain  -0.1129538E+00 Eh

generating ANC from exact Hessian ...
Using Lindh-Hessian (1995)
 Shifting diagonal of input Hessian by   9.805046350415196E-003
 Lowest  eigenvalues of input Hessian
    0.000000    0.000000    0.000000    0.000000    0.000000    0.000000
    0.010000    0.010072    0.010347    0.010546    0.010601    0.010874
    0.011045    0.011151    0.011472    0.011935    0.012286    0.012623
 Highest eigenvalues
    2.106469    2.170104    2.187781    2.391254    2.595569    2.768567
 

........................................................................
.............................. CYCLE   21 ..............................
........................................................................

 iter      E             dE          RMSdq      gap      omega  full diag
   1   -107.0668254 -0.107067E+03  0.141E-01    0.54       0.0  T
   2   -107.0668774 -0.519881E-04  0.909E-02    0.54       1.0  T
   3   -107.0668346  0.428247E-04  0.416E-02    0.52       1.0  T
   4   -107.0668787 -0.441683E-04  0.217E-02    0.54       1.0  T
   5   -107.0668904 -0.116312E-04  0.115E-02    0.53       1.0  T
   6   -107.0668893  0.111847E-05  0.670E-03    0.53       1.8  T
   7   -107.0668908 -0.157091E-05  0.299E-03    0.53       4.1  T
   8   -107.0668911 -0.277779E-06  0.175E-03    0.53       6.9  T
   9   -107.0668911 -0.104212E-07  0.934E-04    0.53      13.0  T
  10   -107.0668911 -0.231168E-07  0.381E-04    0.53      31.8  T
     SCC iter.                  ...        0 min,  0.054 sec
     gradient                   ...        0 min,  0.012 sec
 * total energy  :  -105.5075826 Eh     change       -0.1568111E-02 Eh
   gradient norm :     0.0200491 Eh/α   predicted     0.0000000E+00 (-100.00%)
   displ. norm   :     0.1746294 α      lambda       -0.9841860E-03
   maximum displ.:     0.1189529 α      in ANC's #1, #27, #2, ...

........................................................................
.............................. CYCLE   22 ..............................
........................................................................

 iter      E             dE          RMSdq      gap      omega  full diag
   1   -107.0704239 -0.107070E+03  0.428E-02    0.53       0.0  T
   2   -107.0704290 -0.510033E-05  0.260E-02    0.54       1.0  T
   3   -107.0704212  0.780050E-05  0.122E-02    0.53       1.0  T
   4   -107.0704295 -0.831861E-05  0.512E-03    0.54       2.4  T
   5   -107.0704310 -0.142506E-05  0.210E-03    0.54       5.8  T
   6   -107.0704310 -0.234351E-07  0.136E-03    0.54       8.9  T
   7   -107.0704310 -0.209954E-07  0.619E-04    0.54      19.6  T
   8   -107.0704310 -0.570790E-08  0.378E-04    0.54      32.0  T
     SCC iter.                  ...        0 min,  0.043 sec
     gradient                   ...        0 min,  0.012 sec
 * total energy  :  -105.5083252 Eh     change       -0.7425436E-03 Eh
   gradient norm :     0.0084522 Eh/α   predicted    -0.5071278E-03 ( -31.70%)
   displ. norm   :     0.3056989 α      lambda       -0.7997443E-03
   maximum displ.:     0.2140880 α      in ANC's #1, #27, #2, ...

........................................................................
.............................. CYCLE   23 ..............................
........................................................................

 iter      E             dE          RMSdq      gap      omega  full diag
   1   -107.0731889 -0.107073E+03  0.622E-02    0.54       0.0  T
   2   -107.0731941 -0.518766E-05  0.402E-02    0.55       1.0  T
   3   -107.0731609  0.331787E-04  0.234E-02    0.53       1.0  T
   4   -107.0731988 -0.378215E-04  0.646E-03    0.54       1.9  T
   5   -107.0732004 -0.162900E-05  0.338E-03    0.54       3.6  T
   6   -107.0732005 -0.595899E-07  0.181E-03    0.54       6.7  T
   7   -107.0732005 -0.579062E-07  0.815E-04    0.54      14.9  T
   8   -107.0732005 -0.154466E-07  0.421E-04    0.54      28.8  T
     SCC iter.                  ...        0 min,  0.044 sec
     gradient                   ...        0 min,  0.012 sec
 * total energy  :  -105.5089019 Eh     change       -0.5767660E-03 Eh
   gradient norm :     0.0051770 Eh/α   predicted    -0.4373080E-03 ( -24.18%)
   displ. norm   :     0.3358588 α      lambda       -0.5126414E-03
   maximum displ.:     0.2357340 α      in ANC's #1, #2, #4, ...

........................................................................
.............................. CYCLE   24 ..............................
........................................................................

 iter      E             dE          RMSdq      gap      omega  full diag
   1   -107.0733209 -0.107073E+03  0.668E-02    0.55       0.0  T
   2   -107.0733252 -0.432491E-05  0.439E-02    0.56       1.0  T
   3   -107.0732843  0.409186E-04  0.259E-02    0.54       1.0  T
   4   -107.0733303 -0.459787E-04  0.750E-03    0.55       1.6  T
   5   -107.0733316 -0.130072E-05  0.467E-03    0.55       2.6  T
   6   -107.0733316 -0.366411E-08  0.227E-03    0.55       5.4  T
   7   -107.0733317 -0.153285E-06  0.981E-04    0.55      12.4  T
   8   -107.0733318 -0.235917E-07  0.596E-04    0.55      20.4  T
     SCC iter.                  ...        0 min,  0.043 sec
     gradient                   ...        0 min,  0.012 sec
 * total energy  :  -105.5093038 Eh     change       -0.4018706E-03 Eh
   gradient norm :     0.0084082 Eh/α   predicted    -0.2852354E-03 ( -29.02%)
   displ. norm   :     0.3489010 α      lambda       -0.4329841E-03
   maximum displ.:     0.2438611 α      in ANC's #1, #4, #2, ...

........................................................................
.............................. CYCLE   25 ..............................
........................................................................

 iter      E             dE          RMSdq      gap      omega  full diag
   1   -107.0726391 -0.107073E+03  0.671E-02    0.55       0.0  T
   2   -107.0726445 -0.530200E-05  0.450E-02    0.56       1.0  T
   3   -107.0726043  0.401349E-04  0.279E-02    0.55       1.0  T
   4   -107.0726515 -0.471872E-04  0.825E-03    0.56       1.5  T
   5   -107.0726533 -0.174627E-05  0.522E-03    0.56       2.3  T
   6   -107.0726533 -0.104526E-07  0.264E-03    0.56       4.6  T
   7   -107.0726535 -0.213132E-06  0.103E-03    0.56      11.8  T
   8   -107.0726535 -0.290673E-07  0.656E-04    0.56      18.5  T
   9   -107.0726535 -0.341858E-08  0.370E-04    0.56      32.7  T
     SCC iter.                  ...        0 min,  0.044 sec
     gradient                   ...        0 min,  0.011 sec
 * total energy  :  -105.5096544 Eh     change       -0.3506151E-03 Eh
   gradient norm :     0.0079004 Eh/α   predicted    -0.2428544E-03 ( -30.73%)
   displ. norm   :     0.3439992 α      lambda       -0.3957247E-03
   maximum displ.:     0.2438053 α      in ANC's #1, #4, #2, ...

........................................................................
.............................. CYCLE   26 ..............................
........................................................................

 iter      E             dE          RMSdq      gap      omega  full diag
   1   -107.0723232 -0.107072E+03  0.606E-02    0.56       0.0  T
   2   -107.0723282 -0.501110E-05  0.397E-02    0.57       1.0  T
   3   -107.0722993  0.288919E-04  0.240E-02    0.56       1.0  T
   4   -107.0723331 -0.338356E-04  0.721E-03    0.57       1.7  T
   5   -107.0723347 -0.158185E-05  0.445E-03    0.57       2.7  T
   6   -107.0723347  0.248509E-07  0.240E-03    0.57       5.1  T
   7   -107.0723349 -0.194869E-06  0.800E-04    0.57      15.2  T
   8   -107.0723349 -0.181891E-07  0.529E-04    0.57      22.9  T
     SCC iter.                  ...        0 min,  0.037 sec
     gradient                   ...        0 min,  0.010 sec
 * total energy  :  -105.5099942 Eh     change       -0.3398234E-03 Eh
   gradient norm :     0.0050047 Eh/α   predicted    -0.2212946E-03 ( -34.88%)
   displ. norm   :     0.3963638 α      lambda       -0.4342366E-03
   maximum displ.:     0.2794772 α      in ANC's #1, #4, #2, ...

........................................................................
.............................. CYCLE   27 ..............................
........................................................................

 iter      E             dE          RMSdq      gap      omega  full diag
   1   -107.0724624 -0.107072E+03  0.654E-02    0.57       0.0  T
   2   -107.0724670 -0.464649E-05  0.413E-02    0.58       1.0  T
   3   -107.0724344  0.326152E-04  0.248E-02    0.56       1.0  T
   4   -107.0724725 -0.380323E-04  0.618E-03    0.57       2.0  T
   5   -107.0724738 -0.132500E-05  0.392E-03    0.57       3.1  T
   6   -107.0724738 -0.434424E-07  0.219E-03    0.57       5.5  T
   7   -107.0724740 -0.130961E-06  0.719E-04    0.57      16.9  T
   8   -107.0724740 -0.136119E-07  0.473E-04    0.57      25.6  T
     SCC iter.                  ...        0 min,  0.038 sec
     gradient                   ...        0 min,  0.010 sec
 * total energy  :  -105.5103760 Eh     change       -0.3817324E-03 Eh
   gradient norm :     0.0042968 Eh/α   predicted    -0.2512291E-03 ( -34.19%)
   displ. norm   :     0.4775438 α      lambda       -0.4805484E-03
   maximum displ.:     0.3317479 α      in ANC's #1, #4, #2, ...

........................................................................
.............................. CYCLE   28 ..............................
........................................................................

 iter      E             dE          RMSdq      gap      omega  full diag
   1   -107.0723967 -0.107072E+03  0.750E-02    0.58       0.0  T
   2   -107.0724015 -0.484048E-05  0.459E-02    0.59       1.0  T
   3   -107.0723639  0.375503E-04  0.256E-02    0.57       1.0  T
   4   -107.0724067 -0.427590E-04  0.551E-03    0.58       2.2  T
   5   -107.0724079 -0.119910E-05  0.333E-03    0.58       3.6  T
   6   -107.0724079 -0.303716E-07  0.200E-03    0.58       6.1  T
   7   -107.0724080 -0.103909E-06  0.662E-04    0.58      18.3  T
   8   -107.0724080 -0.120526E-07  0.412E-04    0.58      29.5  T
     SCC iter.                  ...        0 min,  0.037 sec
     gradient                   ...        0 min,  0.010 sec
 * total energy  :  -105.5108089 Eh     change       -0.4329507E-03 Eh
   gradient norm :     0.0068076 Eh/α   predicted    -0.2950696E-03 ( -31.85%)
   displ. norm   :     0.5445268 α      lambda       -0.5320318E-03
   maximum displ.:     0.3756686 α      in ANC's #1, #4, #2, ...

........................................................................
.............................. CYCLE   29 ..............................
........................................................................

 iter      E             dE          RMSdq      gap      omega  full diag
   1   -107.0724043 -0.107072E+03  0.815E-02    0.59       0.0  T
   2   -107.0724088 -0.453124E-05  0.488E-02    0.60       1.0  T
   3   -107.0723753  0.334848E-04  0.237E-02    0.58       1.0  T
   4   -107.0724129 -0.375591E-04  0.442E-03    0.60       2.7  T
   5   -107.0724137 -0.866728E-06  0.247E-03    0.60       4.9  T
   6   -107.0724138 -0.243904E-07  0.158E-03    0.60       7.7  T
   7   -107.0724138 -0.649110E-07  0.581E-04    0.60      20.9  T
   8   -107.0724138 -0.871158E-08  0.346E-04    0.60      35.1  T
     SCC iter.                  ...        0 min,  0.039 sec
     gradient                   ...        0 min,  0.011 sec
 * total energy  :  -105.5112963 Eh     change       -0.4873622E-03 Eh
   gradient norm :     0.0080656 Eh/α   predicted    -0.3448931E-03 ( -29.23%)
   displ. norm   :     0.6029875 α      lambda       -0.5883253E-03
   maximum displ.:     0.4176879 α      in ANC's #1, #4, #2, ...

........................................................................
.............................. CYCLE   30 ..............................
........................................................................

 iter      E             dE          RMSdq      gap      omega  full diag
   1   -107.0727532 -0.107073E+03  0.856E-02    0.61       0.0  T
   2   -107.0727578 -0.452683E-05  0.506E-02    0.61       1.0  T
   3   -107.0727355  0.222989E-04  0.193E-02    0.60       1.0  T
   4   -107.0727605 -0.250508E-04  0.361E-03    0.61       3.4  T
   5   -107.0727611 -0.557652E-06  0.189E-03    0.61       6.4  T
   6   -107.0727611 -0.263630E-08  0.126E-03    0.61       9.6  T
   7   -107.0727611 -0.515688E-07  0.500E-04    0.61      24.3  T
   8   -107.0727611 -0.645936E-08  0.295E-04    0.61      41.1  T
     SCC iter.                  ...        0 min,  0.044 sec
