68
 energy: -12.593576712988 gnorm: 0.008985736543 xtb: 6.7.1 (edcfbbe)
C            4.81428255309355        2.27615076166300       -0.31381993704782
C            4.94338192776388        0.87806686247683        0.16365265676087
C            5.68533258308443       -0.03877595182521       -0.58327764837572
C            5.89597837463169       -1.31036167032947       -0.13834560206990
C            5.33925127460957       -1.70587206390628        1.08695633737342
C            5.61392501345408       -2.94388155464432        1.70752220863907
C            5.15528147911631       -3.22247705645002        2.97213215184867
C            4.39502088766330       -2.30171214652310        3.67710899120437
C            4.05348962120005       -1.07771754249744        3.10100054870320
C            4.54223996008018       -0.75987833225456        1.76977345832654
N            4.40188861826435        0.56824958169787        1.35694158143804
Ni           4.93595083082029        1.15108429770400        3.20495420310376
O            6.50506452829302        2.25019347675776        2.65329699235374
C            7.35262486837206        1.47519100387769        3.26259134992424
O            8.44235085383932        1.08365952028106        2.83471995837889
C            6.89781745848762        0.94890193549754        4.63964575006198
C            8.03441326561288        0.97278396029663        5.62504991459538
C            8.90268850166740       -0.10768841068766        5.66651293257114
C           10.01820985420225       -0.08732809311420        6.47678376229315
C           10.27471107090672        1.01731365370277        7.25932922941640
C            9.41834824109338        2.09981393676368        7.22417140843146
C            8.30931350786371        2.08171116364364        6.40214576759655
N            5.67557509910145        1.65468026321314        5.00643261343374
C            5.23620264083698        1.78602610947929        6.30110374087488
C            4.61563503751271        2.97888642565883        6.71425496483343
C            4.24602486183885        3.15931894813849        8.02300412670861
C            4.47592317817530        2.15975331292508        8.95426786320738
C            5.07589644741309        0.97351824738074        8.56933761141221
C            5.45339293563141        0.78313789116728        7.26451280995967
N            3.40263561782691       -0.01893482522030        3.79693924776394
C            2.20040639908401        0.43270269458168        3.34594388055887
N            1.57949931619692       -0.16857916436125        2.22864466040037
C            1.46000595293314       -1.62080847152897        2.09413672761465
C            1.31750634249743        0.59156231182968        1.00654959531478
N            1.53451367179159        1.45638912018386        4.00071670186423
C            0.19856148774643        1.87119535096070        3.58989685399919
C            2.00265115299644        1.95137526464707        5.27930553818097
H            3.95595467929709        2.76004732505181        0.15330919575892
H            5.70418750976149        2.85039917243456       -0.05398795628095
H            4.67909147059107        2.31802878196337       -1.39503521094077
H            6.13064044671092        0.28949574203861       -1.50755352828965
H            6.51932668113306       -1.99552320753154       -0.68675273429813
H            6.23439686665794       -3.65467780548649        1.18988320548553
H            5.41044481301917       -4.16195852523315        3.43432496679823
H            4.07312176497812       -2.51152994839163        4.68175074101613
H            6.61284871211748       -0.10884919211731        4.50380011886634
H            8.72384032230400       -0.94998584178805        5.01944780507250
H           10.70155675970248       -0.92240341440472        6.48329017986263
H           11.15346973805352        1.04069697276613        7.88479659982367
H            9.62310275502482        2.96644156151311        7.83033915011110
H            7.64977077133981        2.93099224351032        6.34823499064604
H            4.46341423812315        3.75993362732030        5.98866241808569
H            3.78507228637852        4.08313528886850        8.33119916323263
H            4.18950875492088        2.30952858541542        9.98247870364770
H            5.24496022870812        0.19499283446947        9.29588391718329
H            5.91506545225256       -0.13916050855639        6.95971178779382
H            1.51550435415759       -2.09199735619368        3.07446866779432
H            2.26198839295478       -2.01120467900383        1.46970233884245
H            0.50353984129494       -1.87859032904835        1.64302832598694
H            1.59258123753093        1.63431584908688        1.15016482441772
H            1.91455698838216        0.19185508898905        0.18818389029806
H            0.26405111790410        0.53211975668801        0.73792031766199
H            0.26546388774578        2.60869477338271        2.79148013769020
H           -0.34401680386070        2.31163213927905        4.42477245986285
H           -0.36365410303601        1.01150512636169        3.22947766710602
H            1.37853223125960        1.56422644290206        6.08374086587972
H            1.97657882676410        3.04072091387479        5.29724852490934
H            3.02325336268960        1.61667576951222        5.44102451538561
