44
 energy: -71.979763448258 gnorm: 0.000066277540 xtb: 6.7.1 (edcfbbe)
C            8.14429641990743        4.52413094878030       -2.00952001071500
C            6.74573924908167        5.07050747796061       -2.08925629042154
C            6.39590742473323        6.04360097474196       -2.95084943752495
C            5.09342045984282        6.64151290126178       -2.98907951094372
C            3.95471604731348        6.22653552046317       -2.38025573458332
C            2.80522182830427        7.23487478945704       -2.50455039462145
Ni           3.53291209528944        4.59843400189490       -1.47438749429551
O            1.75226833659478        4.80744794084924       -1.84889515481178
C            1.01463629374576        4.34012213946890       -0.95174015553830
O           -0.14846759116073        4.66067444470771       -0.70655749992296
C            1.69327524321417        3.20073788430392       -0.07391642883612
C            0.78533776217480        2.02700722527413       -0.21316006661673
C           -0.28848469439793        1.85338227171904        0.65901172659798
C           -1.18536142918644        0.81747032195288        0.48568645825814
C           -1.03030462228134       -0.07325131816976       -0.56376112885248
C            0.02506660429344        0.09807127456453       -1.44688653142145
C            0.91638061150485        1.13776062273571       -1.27975840552868
N            3.03891680254539        3.01218497462737       -0.59836068902823
C            3.66091349696578        1.88059455609240       -0.21819751251454
C            3.29660319036666        1.10724231887525        0.91617331158001
C            3.93988734078054       -0.06871875541072        1.22855727096689
C            4.97467860459314       -0.55815867938570        0.44679992563397
C            5.35244399319752        0.17777650876016       -0.67390648535665
C            4.71901457213745        1.34778919360092       -1.00023569509379
S            5.63724278618017        4.35684925566784       -0.96562987320927
H            8.81514990773928        5.05841618293183       -2.68555316523258
H            8.14895855890088        3.46529049495451       -2.26958136771075
H            8.51956760439622        4.61062439499335       -0.98990127038313
H            7.15249384436397        6.44933526681305       -3.62304926607387
H            5.06757239927819        7.57525637478520       -3.56618176571711
H            2.34769567178949        7.42659714669333       -1.53319532422914
H            3.15691175780760        8.19181741839676       -2.91398757813985
H            2.02255550051007        6.84390117360821       -3.15427406084382
H            1.67651912119678        3.56885917090207        0.97029502971986
H           -0.41926824784352        2.54768056204636        1.47852359582716
H           -2.01377788379318        0.69741032928626        1.17653396951264
H           -1.72905352750101       -0.89268848322912       -0.69474233491415
H            0.14802017939005       -0.58951805141394       -2.27612748976758
H            1.73256608197290        1.27314644795118       -1.97402977144465
H            2.50336323419311        1.44572257169929        1.57012936578836
H            3.62705514559701       -0.62407535384418        2.11127663352277
H            5.47130234998699       -1.49069335125338        0.69752196043582
H            6.15049210139061       -0.19518238176993       -1.31119284259929
H            5.00954837581877        1.89513029397623       -1.88689350386106
