68
 energy: -105.393060724397 gnorm: 0.270923037235 xtb: 6.7.1 (edcfbbe)
C            4.81428255309355        2.27615076166300       -0.31381993704782
C            4.94338192776388        0.87806686247683        0.16365265676087
C            5.68533258308443       -0.03877595182521       -0.58327764837572
C            5.89597837463169       -1.31036167032947       -0.13834560206990
C            5.33925127460957       -1.70587206390628        1.08695633737342
C            5.61392501345408       -2.94388155464432        1.70752220863907
C            5.15528147911631       -3.22247705645002        2.97213215184867
C            4.39502088766330       -2.30171214652310        3.67710899120437
C            4.05348962120005       -1.07771754249744        3.10100054870320
C            4.54223996008018       -0.75987833225456        1.76977345832654
N            4.40188861826435        0.56824958169787        1.35694158143804
Ni           4.93595083082029        1.15108429770400        3.20495420310376
O            6.50506452829302        2.25019347675776        2.65329699235374
C            7.35262486837206        1.47519100387769        3.26259134992424
O            8.44235085383932        1.08365952028106        2.83471995837889
C            6.89781745848762        0.94890193549754        4.63964575006198
C            8.03441326561288        0.97278396029663        5.62504991459538
C            8.90268850166740       -0.10768841068766        5.66651293257114
C           10.01820985420225       -0.08732809311420        6.47678376229315
C           10.27471107090672        1.01731365370277        7.25932922941640
C            9.41834824109338        2.09981393676368        7.22417140843146
C            8.30931350786371        2.08171116364364        6.40214576759655
N            5.67557509910145        1.65468026321314        5.00643261343374
C            5.23620264083698        1.78602610947929        6.30110374087488
C            4.61563503751271        2.97888642565883        6.71425496483343
C            4.24602486183885        3.15931894813849        8.02300412670861
C            4.47592317817530        2.15975331292508        8.95426786320738
C            5.07589644741309        0.97351824738074        8.56933761141221
C            5.45339293563141        0.78313789116728        7.26451280995967
N            3.40263561782691       -0.01893482522030        3.79693924776394
C            2.20040639908401        0.43270269458168        3.34594388055887
N            1.57949931619692       -0.16857916436125        2.22864466040037
C            1.46000595293314       -1.62080847152897        2.09413672761465
C            1.31750634249743        0.59156231182968        1.00654959531478
N            1.53451367179159        1.45638912018386        4.00071670186423
C            0.19856148774643        1.87119535096070        3.58989685399919
C            2.00265115299644        1.95137526464707        5.27930553818097
H            3.95595467929709        2.76004732505181        0.15330919575892
H            5.70418750976149        2.85039917243456       -0.05398795628095
H            4.67909147059107        2.31802878196337       -1.39503521094077
H            6.13064044671092        0.28949574203861       -1.50755352828965
H            6.51932668113306       -1.99552320753154       -0.68675273429813
H            6.23439686665794       -3.65467780548649        1.18988320548553
H            5.41044481301917       -4.16195852523315        3.43432496679823
H            4.07312176497812       -2.51152994839163        4.68175074101613
H            6.61284871211748       -0.10884919211731        4.50380011886634
H            8.72384032230400       -0.94998584178805        5.01944780507250
H           10.70155675970248       -0.92240341440472        6.48329017986263
H           11.15346973805352        1.04069697276613        7.88479659982367
H            9.62310275502482        2.96644156151311        7.83033915011110
H            7.64977077133981        2.93099224351032        6.34823499064604
H            4.46341423812315        3.75993362732030        5.98866241808569
H            3.78507228637852        4.08313528886850        8.33119916323263
H            4.18950875492088        2.30952858541542        9.98247870364770
H            5.24496022870812        0.19499283446947        9.29588391718329
H            5.91506545225256       -0.13916050855639        6.95971178779382
H            1.51550435415759       -2.09199735619368        3.07446866779432
H            2.26198839295478       -2.01120467900383        1.46970233884245
H            0.50353984129494       -1.87859032904835        1.64302832598694
H            1.59258123753093        1.63431584908688        1.15016482441772
H            1.91455698838216        0.19185508898905        0.18818389029806
H            0.26405111790410        0.53211975668801        0.73792031766199
H            0.26546388774578        2.60869477338271        2.79148013769020
H           -0.34401680386070        2.31163213927905        4.42477245986285
H           -0.36365410303601        1.01150512636169        3.22947766710602
H            1.37853223125960        1.56422644290206        6.08374086587972
H            1.97657882676410        3.04072091387479        5.29724852490934
H            3.02325336268960        1.61667576951222        5.44102451538561
68
 energy: -105.463364606598 gnorm: 0.105943441088 xtb: 6.7.1 (edcfbbe)
C            4.80723783828788        2.28133641271353       -0.30293375587844
C            4.95590970316230        0.88938577370916        0.20481399736644
C            5.67585832672704       -0.03600218711535       -0.57676709535726
C            5.89418500917176       -1.30910639821729       -0.13629986412528
C            5.33807590159876       -1.70390622467836        1.09411786165422
C            5.60648349574715       -2.94502977898518        1.70631686186344
C            5.14884065859275       -3.21282781735931        2.97016968325923
C            4.38444120719959       -2.27790989392810        3.67541532765790
C            4.06912341973321       -1.04972028827108        3.10575554054152
C            4.57688639233423       -0.74015302227402        1.79723841192061
N            4.46068005813795        0.58565112244224        1.41586280242340
Ni           4.94198968481605        1.13137074636451        3.21457552238018
O            6.42661763379375        2.16158646165395        2.66703031490133
C            7.32971717383346        1.45934574493385        3.26128544194716
O            8.42145401965942        1.11358574127562        2.82875347999953
C            6.86963649186116        0.92838058652707        4.65237814148635
C            8.02413585702462        0.97242738142029        5.62360707814584
C            8.90026650284883       -0.10754311428899        5.66092551408238
C           10.01857207923654       -0.08625551228698        6.47224470677377
C           10.27517307755626        1.01899199463918        7.26082762416826
C            9.41609182230717        2.10261118810071        7.22396373568270
C            8.30386096152276        2.08560348534100        6.40157047558556
N            5.62513213805860        1.64719075299890        4.94578530321771
C            5.22873135360885        1.77337664542091        6.26523306558972
C            4.61557605038574        2.97083502211395        6.69773599417023
C            4.25015012163935        3.15529152219966        8.01447492831799
C            4.47691436227977        2.15912423128633        8.95250471887659
C            5.08109429193989        0.97481789323464        8.56215565028284
C            5.45725692235096        0.78268197738955        7.24919023890788
N            3.44021951148041        0.03705881259605        3.77425339642858
C            2.23121735201390        0.44155643215184        3.33872466957807
N            1.57956958737570       -0.15950228085627        2.24571115857605
C            1.47112793613485       -1.60589787052322        2.10086261519665
C            1.31744148050452        0.58912699992898        1.02250953563699
N            1.54911949840940        1.43527927819577        3.99021147829334
C            0.21462100986242        1.85667901576018        3.58437463581274
C            2.00606805759187        1.94381193037175        5.26686732070913
H            3.95522391737039        2.76748325983684        0.16611148277606
H            5.70211168844928        2.84969769752298       -0.04974778933054
H            4.68012731706854        2.30936526153739       -1.38700748682547
H            6.11860951427094        0.29494361552345       -1.50515060065449
H            6.51732319359616       -1.99610300911238       -0.68820158351083
H            6.22974605178715       -3.65625399518935        1.18700981367380
H            5.40447026882713       -4.15391508057328        3.43646099630566
H            4.06486032161682       -2.49643174758411        4.68233493073861
H            6.62542519686837       -0.13989766555101        4.49235811655246
H            8.71879051637694       -0.95648652268657        5.02011334138729
H           10.69912260384078       -0.92510948826830        6.48228836746499
H           11.15375026924492        1.04151684078845        7.88854473314841
H            9.62230286952779        2.97068632382733        7.83068838670980
H            7.64616179193019        2.93768522222465        6.35041641757072
H            4.46330015270559        3.75750441364621        5.97675085081989
H            3.78920309744475        4.08228375352931        8.32544621445267
H            4.18945650555271        2.30925401750151        9.98265534002370
H            5.24849574102507        0.19565109784649        9.29246393673904
H            5.91880798056088       -0.14489334648700        6.95436546227449
H            1.52101481461842       -2.08422438301679        3.07676904871703
H            2.26145658589346       -2.01507959489309        1.46543643410578
H            0.50797967961204       -1.85830449879682        1.64973086111659
H            1.59509050161383        1.63114226081385        1.15634278858292
H            1.91389975851396        0.18767803177610        0.19798692322456
H            0.26265223231135        0.53016358057628        0.74353649155643
H            0.26703667476387        2.60719445868379        2.79300064473205
H           -0.32075035560394        2.29913830006625        4.42592978712557
H           -0.36140612599314        1.00570468320953        3.22415898956339
H            1.37871914712286        1.56223247928581        6.07702963046224
H            1.97445311109238        3.03410067641276        5.28500423945472
H            3.02723698976657        1.61722859242907        5.43461571603460
68
 energy: -105.482860888211 gnorm: 0.026067025409 xtb: 6.7.1 (edcfbbe)
C            4.80469656841211        2.29233992517271       -0.28119715221228
C            4.97028534329008        0.90338224958314        0.23759667929481
C            5.66946032452025       -0.02720082509426       -0.56700233802887
C            5.89480401676530       -1.30193625874956       -0.13258183434016
C            5.34928684709841       -1.69634846826018        1.10553284615993
C            5.59694495039086       -2.94347323744660        1.71107925485864
C            5.13562174662309       -3.19842810843413        2.97501924248919
C            4.37571055430148       -2.25098476949324        3.68173444097232
C            4.09582312665810       -1.02018298356091        3.11812594138573
C            4.62620298285288       -0.71836474701146        1.82742146939666
N            4.50754139992427        0.59539190568548        1.45012121377894
Ni           4.93946450785680        1.12400377882634        3.21897946923393
O            6.38152514491292        2.09545516983217        2.66335862433463
C            7.30686084688150        1.42602544292005        3.24562336860134
O            8.41746013948872        1.15372448884991        2.82475701676403
C            6.84535840366921        0.89693896326925        4.65927509133500
C            8.00248306235535        0.96885891419875        5.62601604249139
C            8.88856275143617       -0.10638517556573        5.65763813122336
C           10.01214478515736       -0.08140122706639        6.46372501580554
C           10.26979961032619        1.02307841134194        7.25634820429471
C            9.40861171144565        2.10643858912848        7.21653192674473
C            8.29052003013537        2.08757823338127        6.39896899301139
N            5.58801000946623        1.63128144195508        4.90967801983953
C            5.20921715747129        1.75242280088319        6.23714835170020
C            4.61136635269684        2.95584730280380        6.67780491878864
C            4.25582952208120        3.14883248750077        7.99767083889047
C            4.48150032384080        2.15766865033922        8.94153677243515
C            5.08912240032611        0.97596759125782        8.54617122081418
C            5.45233821964014        0.77539398179307        7.22872594623111
N            3.46123102843931        0.07798469135134        3.76264027520099
C            2.25600337829518        0.44905371609837        3.33443326475954
N            1.57482987573698       -0.15292773024594        2.26501788358367
C            1.48427084080638       -1.59083720661365        2.11168348484037
C            1.32339829548091        0.58767328785911        1.04263277845519
N            1.56168923815279        1.41368866547804        3.98264030434179
C            0.23369017318202        1.83735934854608        3.57766668041087
C            2.01339723859483        1.93853536549600        5.25141383958279
H            3.95516570978347        2.77968066344904        0.18803705888302
H            5.70108865930055        2.86079961104478       -0.03500981880741
H            4.68203924814294        2.29864871778243       -1.36524388039435
H            6.09147111668691        0.30542443164707       -1.50452010470051
H            6.50651956262193       -1.99386874242197       -0.69335637189837
H            6.20964507728398       -3.66164453683683        1.18599332624209
H            5.38320493533992       -4.13947741822667        3.44641412245970
H            4.04750722949612       -2.47786312141894        4.68519843285276
H            6.64275866028211       -0.18493818989637        4.48984510483431
H            8.70575466793635       -0.96330887904999        5.02482996407867
H           10.68993269102604       -0.92397995479509        6.47615968966600
H           11.14586327373192        1.04297442970388        7.88974696957036
H            9.61571773049703        2.97522398687083        7.82479058726081
H            7.63469679331711        2.94255528756270        6.35373252151993
H            4.45889863506265        3.74497594031126        5.95687427321689
H            3.80100760678620        4.08095918967138        8.30806514241476
H            4.19379650205342        2.30827259337150        9.97293640255423
H            5.26285956961890        0.19875642001719        9.27876911231141
H            5.92318770198691       -0.15376876265877        6.94597925182110
H            1.53300612564166       -2.07454900535974        3.08427521492383
H            2.26358992531434       -2.01143484263507        1.46372007017386
H            0.51477556956186       -1.83034094369659        1.66199425143444
H            1.60063846528257        1.63020811501399        1.16861719692783
H            1.91825608418671        0.18048638830199        0.21557974124590
H            0.26769390252982        0.52638532451425        0.75880407701046
H            0.27711570150180        2.60046654752371        2.79554221678945
H           -0.28506913932402        2.27526310320011        4.43180994487668
H           -0.35234808032690        0.99381726507668        3.21491588921238
H            1.38092395046207        1.56121978102779        6.06175702727790
H            1.97380456976120        3.02820233028447        5.26026141703148
H            3.03558364629642        1.62160760348659        5.42843394281108
68
 energy: -105.487255973106 gnorm: 0.015429293263 xtb: 6.7.1 (edcfbbe)
C            4.80807465406187        2.31031274418948       -0.25149090070785
C            4.98079668442365        0.91756375347499        0.25167334511028
C            5.66616985928564       -0.01580411240877       -0.56042328350888
C            5.89472637601985       -1.29168195948470       -0.12816578225437
C            5.36728694477870       -1.68541274922098        1.11983822017556
C            5.58879198549088       -2.93939774975303        1.72413185406990
C            5.12035835185317       -3.18567641257979        2.98802380405702
C            4.37129752574825       -2.23023317252681        3.69650025802629
C            4.11658163731586       -0.99987367119271        3.13199970193900
C            4.66002436264294       -0.70398533741608        1.84615768079255
N            4.52489828659796        0.59885010931494        1.45462264908166
Ni           4.94347081934745        1.12085993585525        3.21644784306510
O            6.38614879509376        2.06675119463017        2.64197203604582
C            7.31468900364358        1.42221340791692        3.24290214936655
O            8.42643034597197        1.16965361149569        2.82674532689750
C            6.83509371505651        0.86978328461484        4.65270011570093
C            7.98110406374783        0.95925967090210        5.62449353804163
C            8.87181805916578       -0.11146566318989        5.65806200285514
C            9.99827776113523       -0.07855184320789        6.45850771768431
C           10.25436269388234        1.02926451448245        7.24740139920838
C            9.38837175591123        2.10901045975283        7.20495271165362
C            8.26695799564987        2.08299055258519        6.39210175199527
N            5.58321042524888        1.61647811269848        4.90095556896846
C            5.19574902571931        1.73098173031312        6.21964264993820
C            4.60109269623946        2.93592491902708        6.65207279806114
C            4.25702542415395        3.13832435589329        7.97195344054224
C            4.48943386381989        2.15255741670597        8.92061045495990
C            5.09598863948158        0.96974429979621        8.52644562658042
C            5.44627954043582        0.75848720735630        7.20805758431769
N            3.46736409712657        0.09216038706661        3.76709232000195
C            2.26991716220146        0.45389801049431        3.33677859042402
N            1.57503953874314       -0.15081586091928        2.28082693113501
C            1.49915474825818       -1.58376136612924        2.12527260560520
C            1.33415265268451        0.58748149015000        1.05946169721097
N            1.57034377008261        1.40521043345485        3.98279397694982
C            0.24590576966956        1.81931940788800        3.57661377223652
C            2.02401698651851        1.94559544555429        5.24054474065092
H            3.96027806449438        2.79368855903728        0.22635971482657
H            5.70314994690201        2.88078803840721       -0.00563625863355
H            4.68079164295407        2.31286573646870       -1.33313739886103
H            6.06087171139455        0.31597871018591       -1.50980846820060
H            6.48546076956908       -1.99037475234506       -0.70349090707182
H            6.17413608107697       -3.67459014423788        1.19036286592528
H            5.34296557556455       -4.13213007020542        3.45934609645552
H            4.02341557521199       -2.45792608569944        4.69315162343006
H            6.64617915039246       -0.21737575236588        4.48280986463276
H            8.68753068892204       -0.97566990402580        5.03451176742001
H           10.67820581442706       -0.91939189465558        6.46913692417308
H           11.12947384074811        1.05261357852906        7.88223241168490
H            9.59567812204583        2.98226249226339        7.80756437299566
H            7.60956051749570        2.93770259454220        6.34960852528947
H            4.44744685139859        3.71995948081623        5.92471110826167
H            3.81504740541904        4.07753353683473        8.27912623168478
H            4.21062876806155        2.30875415109884        9.95338617714283
H            5.28746452346985        0.20022237703247        9.26256269857364
H            5.92360176556488       -0.17000752795546        6.93101243296312
H            1.55644825894795       -2.06718912943143        3.09723121830675
H            2.27366589122933       -2.00139708262293        1.46837938773473
H            0.52551112379240       -1.81642145176356        1.68194812941178
H            1.61199159726864        1.62965734218888        1.18559422878388
H            1.93106025300567        0.17543413750848        0.23616581785877
H            0.27838891952460        0.52539393352892        0.77519079935387
H            0.28620087000017        2.58958744609510        2.80148914499006
H           -0.26389234457716        2.24414039780261        4.44077289125162
H           -0.33461875436201        0.97513033102240        3.20697309755291
H            1.39149543535847        1.57170704154548        6.05168573209636
H            1.97784633847114        3.03433155924785        5.23103395090901
H            3.04775857954065        1.63591379246282        5.42033792326060
68
 energy: -105.489603143028 gnorm: 0.015200205007 xtb: 6.7.1 (edcfbbe)
C            4.81302088416274        2.33274918488881       -0.21844578591609
C            4.98433347200749        0.93180425696632        0.25852377087811
C            5.65494709321928       -0.00612989044372       -0.55888601408925
C            5.88497898533921       -1.28210617750974       -0.12600838537783
C            5.37957425359728       -1.67475720283745        1.13329134956550
C            5.57542578219913       -2.93480778211588        1.73817553522978
C            5.09892439545280       -3.17434010038784        3.00063199854753
C            4.36596955030397       -2.20977299150277        3.71287125673807
C            4.13422764814940       -0.97880382096102        3.14638429153066
C            4.68380450663659       -0.69035844405053        1.86122802290275
N            4.53049609410835        0.60278399314009        1.45277672213983
Ni           4.95136688882585        1.11805030379460        3.21041532731964
O            6.40562949591406        2.04557923771933        2.62724312902806
C            7.32623470720591        1.40151507821463        3.23358673556208
O            8.46132387390193        1.20374705583174        2.83903183481609
C            6.83278070645284        0.83963280723589        4.64106199230226
C            7.96408077604295        0.94232147351084        5.62010891440095
C            8.85773301370211       -0.12419758458929        5.66312014227431
C            9.98496625076332       -0.07887224704936        6.45992636399659
C           10.23573079252684        1.03688756655275        7.23933412059472
C            9.36223426620704        2.11059427226474        7.19083457584548
C            8.24079975420704        2.07316865085535        6.37966595146441
N            5.59247309772272        1.60118327237485        4.89342811472009
C            5.19366690418019        1.70857948301279        6.20181668768931
C            4.59629810994296        2.91409748662776        6.62319111075308
C            4.26083590964901        3.12499385449300        7.94187759271473
C            4.50374577251198        2.14541928972296        8.89543273281508
C            5.10823745144070        0.96040348577076        8.50529418447547
C            5.44757278521435        0.73742532079746        7.18662120631301
N            3.47114104532555        0.10438611600380        3.77396214024213
C            2.27716956964799        0.45831344266197        3.34369907843072
N            1.57377445149627       -0.15066280012737        2.29745748470750
C            1.51836890891420       -1.58135950746928        2.13930255655557
C            1.34977562136696        0.58700560130921        1.07412107429008
N            1.57174435337853        1.40150267348438        3.98809130104802
C            0.24790390622488        1.80325838879949        3.58195929676677
C            2.03169545288502        1.96586003990710        5.23043006383107
H            3.97066333601424        2.80979398565135        0.27748744224000
H            5.70903107262585        2.89906720034767        0.03348232759880
H            4.67718205645013        2.35018432318872       -1.29719542009184
H            6.02794208106522        0.32411603383620       -1.51705311782663
H            6.45536936532652       -1.98632699531197       -0.71509344122341
H            6.13400202249675       -3.68720635866065        1.19916902474146
H            5.29175029309283       -4.12822780419143        3.47014509735568
H            4.00063647024532       -2.43311491572926        4.70403183849761
H            6.64654561172361       -0.24755128269451        4.47165225725042
H            8.67319290155849       -0.99633867401176        5.05023429136494
H           10.66911830204429       -0.91584716729224        6.47112350517227
H           11.11089084057434        1.07014914797548        7.87301833585069
H            9.56502406045880        2.99023547777290        7.78585275439519
H            7.57801273695732        2.92428400169069        6.33695151451949
H            4.43703954496314        3.68799066139623        5.88566005197702
H            3.82473084958167        4.06810683163279        8.24320819188217
H            4.23565380331657        2.30893555883892        9.92932589225140
H            5.31305719349282        0.19781616708296        9.24458226550713
H            5.92260551070984       -0.19280864198441        6.91211790970984
H            1.58944581245485       -2.06367057253292        3.11079126094948
H            2.29256711784615       -1.98879949168806        1.47586102536273
H            0.54355497083011       -1.81961091189916        1.70378690439742
H            1.62829274520039        1.62843041394882        1.20383359883323
H            1.95315876824848        0.17285532437433        0.25728736426678
H            0.29582267559439        0.52682990813787        0.78336724522191
H            0.28380824976475        2.58077837361382        2.81438316869719
H           -0.26266314502094        2.21007552159159        4.45237020925215
H           -0.31906153396889        0.95527622168742        3.20099368625440
H            1.40500268392262        1.60175346229105        6.04941044597274
H            1.98256794094970        3.05370064880198        5.19750005984237
H            3.05621813110756        1.66123776416282        5.40904683576641
68
 energy: -105.490898013144 gnorm: 0.011661752752 xtb: 6.7.1 (edcfbbe)
C            4.81860098765587        2.35426370553308       -0.19000485825444
C            4.98130643889531        0.94336662491725        0.25916249606240
C            5.63801504405388       -0.00013963244911       -0.56274266500935
C            5.86562818143330       -1.27626026056576       -0.12806321085036
C            5.37805701715983       -1.66763092071398        1.13981393104074
C            5.55702871175835       -2.93039585646229        1.74638336048550
C            5.07633137458066       -3.16498539924796        3.00804017724689
C            4.36014963875652       -2.19190804125397        3.72510202656039
C            4.14358026676497       -0.95952408136219        3.15691147141460
C            4.69111035732630       -0.67910094834932        1.86904813018019
N            4.52791656256754        0.60834999637133        1.44959650751183
Ni           4.96261476322048        1.11652891510808        3.20345743390863
O            6.42755835794592        2.02723207866994        2.61160881329548
C            7.35263257610534        1.40491858091904        3.23795071887203
O            8.47963954981664        1.20764806970858        2.84786508552291
C            6.83815285030863        0.81642974734065        4.62922820923035
C            7.95613858438191        0.92041183968950        5.61647565490028
C            8.85277013857083       -0.14190368222570        5.67227238547028
C            9.97838990025373       -0.08169376573053        6.46944292491112
C           10.22066448419822        1.04458980351192        7.23666080037992
C            9.33840232660537        2.11083705463290        7.17984866148356
C            8.21936298740212        2.05903489596752        6.36760879780132
N            5.61025273649071        1.59110249452797        4.88476564782752
C            5.20077535740475        1.68901399732608        6.18596156106744
C            4.59839174430955        2.89456807610366        6.59969502732568
C            4.26693823047454        3.11060654216758        7.91689932598362
C            4.52101186425318        2.13635566824937        8.87380932912120
C            5.12252941909972        0.94886545668770        8.48762346679416
C            5.45408814662008        0.71670145801658        7.16863811728301
N            3.47474736405134        0.11884309651924        3.77918259099001
C            2.27784967096885        0.46298700676105        3.35307048363028
N            1.57083886667490       -0.15181715270304        2.31241933286405
C            1.53905304106800       -1.58293127532162        2.15118502981169
C            1.36640793473027        0.58593357570490        1.08473561703667
N            1.56596640233447        1.40176301825208        3.99602258756189
C            0.23870091410316        1.78968227074170        3.59185277317981
C            2.03506528200694        1.99536294615720        5.22078380572403
H            3.98470177637445        2.82574517282252        0.32764383696884
H            5.71932482401672        2.90929238128098        0.07165492418302