
                                 *****************
                                 * O   R   C   A *
                                 *****************

                                            #,                                       
                                            ###                                      
                                            ####                                     
                                            #####                                    
                                            ######                                   
                                           ########,                                 
                                     ,,################,,,,,                         
                               ,,#################################,,                 
                          ,,##########################################,,             
                       ,#########################################, ''#####,          
                    ,#############################################,,   '####,        
                  ,##################################################,,,,####,       
                ,###########''''           ''''###############################       
              ,#####''   ,,,,##########,,,,          '''####'''          '####       
            ,##' ,,,,###########################,,,                        '##       
           ' ,,###''''                  '''############,,,                           
         ,,##''                                '''############,,,,        ,,,,,,###''
      ,#''                                            '''#######################'''  
     '                                                          ''''####''''         
             ,#######,   #######,   ,#######,      ##                                
            ,#'     '#,  ##    ##  ,#'     '#,    #''#        ,####,    ,#,          
            ##       ##  ##   ,#'  ##            #'  '#       #'       ,# #          
            ##       ##  #######   ##           ,######,      #####,      #          
            '#,     ,#'  ##    ##  '#,     ,#' ,#      #,     #,   #      #          
             '#######'   ##     ##  '#######'  #'      '#     '####' #    #          



                #########################################################
                #                        -***-                          #
                #          Department of theory and spectroscopy        #
                #                                                       #
                #                      Frank Neese                      #
                #                                                       #
                #     Directorship, Architecture, Infrastructure        #
                #                    SHARK, DRIVERS                     #
                #        Core code/Algorithms in most modules           #
                #                                                       #
                #        Max Planck Institute fuer Kohlenforschung      #
                #                Kaiser Wilhelm Platz 1                 #
                #                 D-45470 Muelheim/Ruhr                 #
                #                      Germany                          #
                #                                                       #
                #                  All rights reserved                  #
                #                        -***-                          #
                #########################################################


                         Program Version 6.1.0  -  RELEASE   -
                                (GIT: $679e74b$)
                          ($2025-06-10 18:02:51 +0200$)


 With contributions from (in alphabetic order):
[Max-Planck-Institut fuer Kohlenforschung]                               
  Daniel Aravena         : Magnetic Suceptibility                        
  Michael Atanasov       : Ab Initio Ligand Field Theory (pilot matlab implementation)
  Alexander A. Auer      : GIAO ZORA, VPT2 properties, NMR spectrum      
  Ute Becker             : All parallelization in ORCA, NUMFREQ, NUMCALC 
  Giovanni Bistoni       : ED, misc. LED, open-shell LED, HFLD           
  Dmytro Bykov           : pre 5.0 version of the SCF Hessian            
  Marcos Casanova-Páez   : Triplet and SCS-CIS(D). UHF-(DLPNO)-IP/EA/STEOM-CCSD. UHF-CVS-IP/STEOM-CCSD   
  Vijay G. Chilkuri      : MRCI spin determinant printing, contributions to CSF-ICE 
  Pauline Colinet        : FMM embedding                                 
  Dipayan Datta          : RHF DLPNO-CCSD density                        
  Achintya Kumar Dutta   : EOM-CC, STEOM-CC                              
  Nicolas Foglia         : Exact transition moments, OPA infrastructure, MCD improvements    
  Dmitry Ganyushin       : Spin-Orbit,Spin-Spin,Magnetic field MRCI      
  Miquel Garcia-Rates    : C-PCM and meta-GGA Hessian, CCSD/C-PCM, Gaussian charge scheme 
  Tiago L. C. Gouveia    : GS-ROHF, GS-ROCIS                             
  Yang Guo               : DLPNO-NEVPT2, F12-NEVPT2, CIM, IAO-localization        
  Andreas Hansen         : Spin unrestricted coupled pair/coupled cluster methods 
  Ingolf Harden          : AUTO-CI MPn and infrastructure                
  Benjamin Helmich-Paris : MC-RPA, TRAH-(SCF,CASSCF), AVAS, COSX integrals, SCF dyn. polar., MC-PDFT, srDFT 
  Lee Huntington         : MR-EOM, pCC                                   
  Robert Izsak           : Overlap fitted RIJCOSX, COSX-SCS-MP3, EOM     
  Riya Kayal             : Wick's Theorem for AUTO-CI, AUTO-CI UHF-CCSDT 
  Emily Kempfer          : AUTO-CI RHF CISDT and CCSDT, approximate NEVPT4
  Christian Kollmar      : KDIIS, OOCD, Brueckner-CCSD(T), CCSD density, CASPT2, CASPT2-K, improved NEVPT2 
  Axel Koslowski         : Symmetry handling                             
  Simone Kossmann        : meta-GGA functionals, TD-DFT gradient, OOMP2, (MP2 Hessian; deprecated post 5.0) 
  Lucas Lang             : DCDCAS, Hyperfine gauge corrections, ICE-SOC+SSC
  Marvin Lechner         : AUTO-CI (C++ implementation), FIC-MRCC        
  Spencer Leger          : CASSCF response                               
  Dagmar Lenk            : GEPOL surface, SMD, ORCA-2-JSON               
  Dimitrios Liakos       : Extrapolation schemes; Compound Job, Property file
  Dimitrios Manganas     : Further ROCIS development; embedding schemes. LFT, Crystal Embedding 
  Dimitrios Pantazis     : SARC Basis sets                               
  Anastasios Papadopoulos: AUTO-CI, single reference methods and gradients 
  Taras Petrenko         : pre 6.0 DFT Hessian and TD-DFT gradient,  ECA, NRVS 
  Petra Pikulova         : Analytic Raman intensities                    
  Peter Pinski           : DLPNO-MP2, DLPNO-MP2 Gradient                 
  Shashank Vittal Rao    : ES-AILFT, MagRelax                            
  Christoph Reimann      : Effective Core Potentials                     
  Marius Retegan         : Local ZFS, SOC                                
  Christoph Riplinger    : Optimizer, TS searches, QM/MM, DLPNO-CCSD(T), (RO)-DLPNO pert. Triples 
  Michael Roemelt        : Original ROCIS implementation, recursive CI coupling coefficients
  Masaaki Saitow         : Open-shell DLPNO-CCSD energy and density      
  Barbara Sandhoefer     : DKH picture change effects                    
  Yorick L. A. Schmerwitz: GMF and freeze-and-release deltaSCF, NEB S-IDPP initial path                    
  Kantharuban Sivalingam : CASSCF convergence/infrastructure, NEVPT2, NEVPT3, NEVPT4(SD), FIC-MRCI and CEPA variants
  Bernardo de Souza      : ESD, SOC TD-DFT                               
  Georgi L. Stoychev     : AutoAux, RI-MP2 NMR, DLPNO-MP2 response, X2C  
  Van Anh Tran           : RI-MP2 g-tensors                              
  Willem Van den Heuvel  : Paramagnetic NMR                              
  Zikuan Wang            : NOTCH, Electric field optimization            
  Frank Wennmohs         : Technical directorship and infrastructure     
  Hang Xu                : AUTO-CI-Response properties                   
                                                                         
[FACCTs GmbH]                                                            
  Markus Bursch, Nicolas Foglia, Miquel Garcia-Rates, Ingolf Harden, Hagen Neugebauer, Anastasios Papadopoulos, 
  Christoph Riplinger, Bernardo de Souza, Georgi L. Stoychev                                                    
                                                                 
  APM, various basis sets, CI-OPT, improved COSX, DLPNO-Multilevel,           
  DOCKER, DRACO, updates on ESD, Fragmentator, GOAT, IRC, LR-CPCM, L-BFGS, MBIS, meta-GGA TD-DFT gradient, ML-optimized integration grids, 
  MM, NACMEs, nearIR, NEB, NEB-TS, NL-DFT gradient (VV10), 2- and 3-layer-ONIOM, interface openCOSMO-RS, QMMM,   
  Crystal-QMMM, RESP, rigid body optimization, SF, symmetry and pop. for TD-DFT, various functionals, SOLVATOR                                   
                                                                         
[Other institutions]                                                     
  V. Asgeirsson          : NEB                                           
  Christoph Bannwarth    : sTDA-DFT, sTD-DFT, PBEh-3c, B97-3c, D3        
  Giovanni Bistoni       : ETS/NOCV, ADLD/ADEX, COVALED                  
  Martin Brehm           : Molecular dynamics                            
  Ronald Cardenas        : ETS/NOCV                                      
  Martina Colucci        : COVALED                                       
  Sebastian Ehlert       : rSCAN, r2SCAN, r2SCAN-3c, D4, dhf basis sets  
  Marvin Friede          : D4 for Fr, Ra, Ac-Lr                          
  Lars Goerigk           : TD-DFT with DH, B97 family of functionals     
  Stefan Grimme          : VdW corrections, initial TS optimization, DFT functionals, gCP, sTDA/sTD-DF 
  Waldemar Hujo          : DFT-NL                                        
  H. Jonsson             : NEB                                           
  Holger Kruse           : gCP                                           
  Marcel Mueller         : wB97X-3c, vDZP basis set                      
  Hagen Neugebauer       : wr2SCAN, Native XTB                           
  Gianluca Regni         : ADLD/ADEX                                     
  Tobias Risthaus        : pre 6.0 range-separated hybrid DFT and stability analysis
  Lukas Wittmann         : regularized MP2, r2SCAN double-hybrids, wr2SCAN        
                                                                         
We gratefully acknowledge several colleagues who have allowed us to      
interface, adapt or use parts of their codes:                            
  Ed Valeev, F. Pavosevic, A. Kumar             : LibInt (2-el integral package), F12 methods 
  Garnet Chan, S. Sharma, J. Yang, R. Olivares  : DMRG                   
  Ulf Ekstrom                                   : XCFun DFT Library      
  Mihaly Kallay                                 : mrcc  (arbitrary order and MRCC methods)
  Frank Weinhold                                : gennbo (NPA and NBO analysis)           
  Simon Mueller                                 : openCOSMO-RS                            
  Christopher J. Cramer and Donald G. Truhlar   : smd solvation model                     
  S Lehtola, MJT Oliveira, MAL Marques          : LibXC Library                           
  Liviu Ungur et al                             : ANISO software                          


 Your calculation uses the libint2 library for the computation of 2-el integrals
 For citations please refer to: http://libint.valeyev.net

 Your ORCA version has been built with support for libXC version: 7.0.0
 For citations please refer to: https://libxc.gitlab.io

 This ORCA versions uses:
   CBLAS   interface :  Fast vector & matrix operations
   LAPACKE interface :  Fast linear algebra routines
   SCALAPACK package :  Parallel linear algebra routines
   Shared memory     :  Shared parallel matrices
   BLAS/LAPACK       :  OpenBLAS 0.3.29  USE64BITINT DYNAMIC_ARCH NO_AFFINITY Zen SINGLE_THREADED
        Core in use  :  Zen
   Copyright (c) 2011-2014, The OpenBLAS Project


  ***********************************
  * Starting time: Sun Jan 25 09:22:13 2026
  * Host name:     node067.cluster
  * Process ID:    66840
  * Working dir.:  /scratch/56608613
  ***********************************

NOTE: MaxCore=1500 MB was set to SCF,MP2,MDCI,CIPSI,MRCI,RASCI and CIS
      => If you want to overwrite this, your respective input block should be placed after the MaxCore statement
Your calculation utilizes the geometrical counterpoise correction gCP
Please cite in your paper:
H.Kruse, S. Grimme J.Chem.Phys., 136, (2012), 154101 
   

Your calculation utilizes the atom-pairwise dispersion correction
based on EEQ partial charges (D4)


================================================================================

----- Orbital basis set information -----
Your calculation utilizes the basis: def2-mTZVPP
   Stefan Grimme, Andreas Hansen, Sebastian Ehlert, and Jan-Michael Mewes 
   J. Chem. Phys. 154, 064103 (2021). DOI: 10.1063/5.0040021

----- AuxJ basis set information -----
Your calculation utilizes the basis: def2-mTZVPP/J
   Stefan Grimme, Andreas Hansen, Sebastian Ehlert, and Jan-Michael Mewes 
   J. Chem. Phys. 154, 000000 (2021). DOI: 10.1063/5.0040021

================================================================================
                                        WARNINGS
                       Please study these warnings very carefully!
================================================================================



WARNING: SCAN, rSCAN, or r2SCAN functional requested.
  ===> : libXC variant has now been activated.



WARNING: Geometry Optimization
  ===> : Switching off AutoStart
         For restart on a previous wavefunction, please use MOREAD

================================================================================
                                       INPUT FILE
================================================================================
NAME = testpairs_id_0struct_1.inp
|  1> !r2scan-3c opt freq
|  2>  
|  3>  
|  4>  %pal 
|  5>  nprocs 8 
|  6>  end 
|  7>  
|  8>  %maxcore 1500 
|  9>  
| 10>  * XYZ 0 1 
| 11> C      1.03437500     -3.61311600     -5.85881100
| 12> C      1.06864400     -2.97650400     -4.50327400
| 13> C     -0.00098200     -2.99842400     -3.65961600
| 14> C      0.03299700     -2.35681000     -2.40440000
| 15> C     -1.08470800     -2.33214300     -1.55468000
| 16> C     -1.05529300     -1.66931900     -0.35632800
| 17> C      0.10926700     -0.98388600      0.02115000
| 18> C      1.21884000     -1.00215200     -0.77621700
| 19> C      1.24024000     -1.70763700     -2.00438300
| 20> C      2.37670700     -1.75701600     -2.83639900
| 21> C      2.29805700     -2.32250800     -4.12632100
| 22> O      3.27745800     -2.34729500     -4.96355000
| 23> Ni      4.10619200     -0.99062900     -5.86044800
| 24> O      4.41449200     -2.05728900     -7.30800900
| 25> C      5.34814800     -1.69021300     -8.07358400
| 26> O      5.77341800     -2.28482600     -9.05796400
| 27> C      5.97990200     -0.31033100     -7.65985500
| 28> C      7.25275700     -0.62796600     -6.93705900
| 29> C      7.20326200     -1.16228900     -5.65018300
| 30> C      8.36027500     -1.47754000     -4.96741800
| 31> C      9.59650400     -1.27611600     -5.56328900
| 32> C      9.65862000     -0.77152300     -6.85151500
| 33> C      8.49829800     -0.45144800     -7.53285300
| 34> N      4.96302200      0.34066000     -6.84308100
| 35> C      4.94788900      1.68332900     -6.81723400
| 36> C      6.01354100      2.50150900     -7.26774700
| 37> C      5.91275900      3.87606400     -7.26582400
| 38> C      4.77122300      4.51625200     -6.81179500
| 39> C      3.71868900      3.73367900     -6.34287000
| 40> C      3.79659000      2.36477300     -6.34950500
| 41> O      3.82365500      0.09607800     -4.42342100
| 42> C      4.28952400     -0.23018900     -3.25429800
| 43> C      5.44738600      0.46421600     -2.74794600
| 44> C      6.02986100      1.55380900     -3.59230300
| 45> C      5.98318700      0.13589600     -1.53742500
| 46> C      5.45596300     -0.90670800     -0.74925700
| 47> C      6.05286900     -1.30109400      0.45974800
| 48> C      5.54472700     -2.33454000      1.20099100
| 49> C      4.41366200     -3.02331200      0.73810400
| 50> C      3.79980400     -2.65195000     -0.42541800
| 51> C      4.27832400     -1.57102100     -1.20378400
| 52> C      3.66170000     -1.16571200     -2.40649400
| 53> H      1.57453100     -4.56113300     -5.84385400
| 54> H      0.01153900     -3.79285800     -6.19164500
| 55> H      1.55371300     -2.96588400     -6.56593300
| 56> H     -0.91783000     -3.49895100     -3.95880300
| 57> H     -1.98647500     -2.84664100     -1.87144700
| 58> H     -1.92463100     -1.65697600      0.29188900
| 59> H      0.11993000     -0.43202500      0.95446500
| 60> H      2.10186000     -0.45620800     -0.47772300
| 61> H      6.19292100      0.26061600     -8.57729800
| 62> H      6.22799500     -1.34024700     -5.18753600
| 63> H      8.29896700     -1.88019800     -3.96544100
| 64> H     10.50712100     -1.51641500     -5.02811300
| 65> H     10.62157600     -0.62154600     -7.32657100
| 66> H      8.55494800     -0.06041300     -8.54044600
| 67> H      6.94067200      2.05155900     -7.59499200
| 68> H      6.75364400      4.46745800     -7.61892200
| 69> H      4.70232000      5.59825300     -6.81444200
| 70> H      2.81789300      4.21738300     -5.97822400
| 71> H      2.97743600      1.75929500     -5.98774400
| 72> H      6.78691500      2.11643900     -3.04562100
| 73> H      6.48139700      1.13041200     -4.48930900
| 74> H      5.24209900      2.22530600     -3.92992200
| 75> H      6.85276700      0.67199100     -1.16905600
| 76> H      6.93963200     -0.77299600      0.79465200
| 77> H      6.01529600     -2.63237900      2.13150400
| 78> H      4.03118100     -3.86010400      1.31170800
| 79> H      2.93810400     -3.20095700     -0.77639400
| 80> 
| 81>  **                         ****END OF INPUT****
================================================================================

                       *****************************
                       * Geometry Optimization Run *
                       *****************************

Geometry optimization settings:
Update method            Update   .... BFGS
Choice of coordinates    CoordSys .... (2022) Redundant Internals
Initial Hessian          InHess   .... Almloef's Model
Max. no of cycles        MaxIter  .... 207

Convergence Tolerances:
Energy Change            TolE     ....  5.0000e-06 Eh
Max. Gradient            TolMAXG  ....  3.0000e-04 Eh/bohr
RMS Gradient             TolRMSG  ....  1.0000e-04 Eh/bohr
Max. Displacement        TolMAXD  ....  4.0000e-03 bohr
RMS Displacement         TolRMSD  ....  2.0000e-03 bohr
Strict Convergence                .... False

------------------------------------------------------------------------------
                        ORCA OPTIMIZATION COORDINATE SETUP
------------------------------------------------------------------------------

The optimization will be done in redundant internal coordinates (2022)
Making redundant internal coordinates   ...  (2022 redundants) done
Evaluating the initial hessian          ...  (Almloef) done
Evaluating the coordinates              ...  done
Calculating the B-matrix                .... done
Calculating the G-matrix                .... done
The number of degrees of freedom        ....  466

    -----------------------------------------------------------------
                    Redundant Internal Coordinates


    -----------------------------------------------------------------
         Definition                    Initial Value    Approx d2E/dq
    -----------------------------------------------------------------
      1. B(C   1,C   0)                  1.4980         0.420214   
      2. B(C   2,C   1)                  1.3625         0.691277   
      3. B(C   3,C   2)                  1.4101         0.580317   
      4. B(C   4,C   3)                  1.4042         0.592947   
      5. B(C   5,C   4)                  1.3698         0.673018   
      6. B(C   6,C   5)                  1.4030         0.595582   
      7. B(C   7,C   6)                  1.3665         0.681171   
      8. B(C   8,C   7)                  1.4165         0.566775   
      9. B(C   8,C   3)                  1.4279         0.543607   
     10. B(C   9,C   8)                  1.4093         0.581941   
     11. B(C  10,C   9)                  1.4106         0.579203   
     12. B(C  10,C   1)                  1.4427         0.514905   
     13. B(O  11,C  10)                  1.2887         0.811830   
     14. B(Ni 12,O  11)                  1.8253         1.144157   
     15. B(O  13,Ni 12)                  1.8243         1.148222   
     16. B(C  14,O  13)                  1.2620         0.895658   
     17. B(C  14,Ni 12)                  2.6325         0.065856   
     18. B(O  15,C  14)                  1.2261         1.021648   
     19. B(C  16,C  14)                  1.5730         0.318976   
     20. B(C  16,Ni 12)                  2.6854         0.054214   
     21. B(C  17,C  16)                  1.4978         0.420443   
     22. B(C  18,C  17)                  1.3943         0.615063   
     23. B(C  19,C  18)                  1.3799         0.648322   
     24. B(C  20,C  19)                  1.3870         0.631614   
     25. B(C  21,C  20)                  1.3849         0.636570   
     26. B(C  22,C  21)                  1.3831         0.640793   
     27. B(C  22,C  17)                  1.3919         0.620356   
     28. B(N  23,C  16)                  1.4577         0.436344   
     29. B(N  23,Ni 12)                  1.8633         0.994966   
     30. B(C  24,N  23)                  1.3430         0.665053   
     31. B(C  25,C  24)                  1.4170         0.565721   
     32. B(C  26,C  25)                  1.3782         0.652366   
     33. B(C  27,C  26)                  1.3853         0.635651   
     34. B(C  28,C  27)                  1.3929         0.618201   
     35. B(C  29,C  28)                  1.3711         0.669628   
     36. B(C  29,C  24)                  1.4173         0.565258   
     37. B(O  30,Ni 12)                  1.8237         1.151046   
     38. B(C  31,O  30)                  1.3001         0.778504   
     39. B(C  31,Ni 12)                  2.7210         0.047569   
     40. B(C  32,C  31)                  1.4420         0.516235   
     41. B(C  33,C  32)                  1.4965         0.422541   
     42. B(C  34,C  32)                  1.3639         0.687655   
     43. B(C  35,C  34)                  1.4093         0.581978   
     44. B(C  36,C  35)                  1.4048         0.591681   
     45. B(C  37,C  36)                  1.3695         0.673549   
     46. B(C  38,C  37)                  1.4028         0.595994   
     47. B(C  39,C  38)                  1.3669         0.680041   
     48. B(C  40,C  39)                  1.4154         0.569219   
     49. B(C  40,C  35)                  1.4264         0.546507   
     50. B(C  41,C  40)                  1.4110         0.578340   
     51. B(C  41,C  31)                  1.4100         0.580508   
     52. B(C  41,C   9)                  1.4784         0.451546   
     53. B(H  42,C   0)                  1.0912         0.358509   
     54. B(H  43,C   0)                  1.0905         0.359385   
     55. B(H  44,C   0)                  1.0902         0.359771   
     56. B(H  45,C   2)                  1.0866         0.364656   
     57. B(H  46,C   4)                  1.0855         0.366150   
     58. B(H  47,C   5)                  1.0845         0.367483   
     59. B(H  48,C   6)                  1.0843         0.367698   
     60. B(H  49,C   7)                  1.0802         0.373271   
     61. B(H  50,C  16)                  1.1014         0.345344   
     62. B(H  51,C  18)                  1.0940         0.354835   
     63. B(H  52,C  19)                  1.0816         0.371391   
     64. B(H  53,C  20)                  1.0832         0.369173   
     65. B(H  54,C  21)                  1.0842         0.367876   
     66. B(H  55,C  22)                  1.0823         0.370439   
     67. B(H  56,C  25)                  1.0813         0.371854   
     68. B(H  57,C  26)                  1.0870         0.364125   
     69. B(H  58,C  27)                  1.0842         0.367861   
     70. B(H  59,C  28)                  1.0855         0.366066   
     71. B(H  60,C  29)                  1.0810         0.372251   
     72. B(H  61,C  33)                  1.0902         0.359830   
     73. B(H  62,C  33)                  1.0898         0.360301   
     74. B(H  63,C  33)                  1.0888         0.361704   
     75. B(H  64,C  34)                  1.0859         0.365513   
     76. B(H  65,C  36)                  1.0851         0.366669   
     77. B(H  66,C  37)                  1.0844         0.367539   
     78. B(H  67,C  38)                  1.0842         0.367827   
     79. B(H  68,C  39)                  1.0803         0.373118   
     80. A(C   1,C   0,H  44)          108.8884         0.330619   
     81. A(H  42,C   0,H  44)          106.7891         0.290596   
     82. A(H  42,C   0,H  43)          108.9818         0.290547   
     83. A(H  43,C   0,H  44)          110.2838         0.290707   
     84. A(C   1,C   0,H  42)          110.2116         0.330427   
     85. A(C   1,C   0,H  43)          111.5727         0.330560   
     86. A(C   0,C   1,C   2)          122.3801         0.412866   
     87. A(C   2,C   1,C  10)          120.9652         0.428111   
     88. A(C   0,C   1,C  10)          116.6537         0.391978   
     89. A(C   1,C   2,C   3)          121.6654         0.437415   
     90. A(C   1,C   2,H  45)          119.9565         0.360261   
     91. A(C   3,C   2,H  45)          118.3617         0.349728   
     92. A(C   4,C   3,C   8)          119.6993         0.420582   
     93. A(C   2,C   3,C   4)          121.8338         0.425523   
     94. A(C   2,C   3,C   8)          118.4644         0.418970   
     95. A(C   3,C   4,H  46)          118.4463         0.351244   
     96. A(C   5,C   4,H  46)          120.1662         0.358872   
     97. A(C   3,C   4,C   5)          121.3855         0.437002   
     98. A(C   4,C   5,H  47)          120.7451         0.359094   
     99. A(C   4,C   5,C   6)          119.3144         0.437352   
    100. A(C   6,C   5,H  47)          119.9335         0.351724   
    101. A(C   5,C   6,H  48)          119.2341         0.351759   
    102. A(C   5,C   6,C   7)          120.6941         0.438302   
    103. A(C   7,C   6,H  48)          120.0712         0.359867   
    104. A(C   8,C   7,H  49)          118.6162         0.349713   
    105. A(C   6,C   7,H  49)          119.7199         0.360791   
    106. A(C   6,C   7,C   8)          121.6580         0.434405   
    107. A(C   3,C   8,C   7)          117.1645         0.417212   
    108. A(C   7,C   8,C   9)          122.7849         0.422313   
    109. A(C   3,C   8,C   9)          120.0303         0.419179   
    110. A(C   8,C   9,C  41)          121.0112         0.405600   
    111. A(C  10,C   9,C  41)          118.3403         0.405262   
    112. A(C   8,C   9,C  10)          120.5924         0.423953   
    113. A(C   1,C  10,O  11)          117.9808         0.437782   
    114. A(C   1,C  10,C   9)          117.9160         0.414802   
    115. A(C   9,C  10,O  11)          124.0149         0.447196   
    116. A(C  10,O  11,Ni 12)          130.5397         0.568793   
    117. A(C  14,Ni 12,C  16)           34.3923         0.248616   
    118. A(O  11,Ni 12,C  16)          146.5455         0.391810   
    119. A(N  23,Ni 12,O  30)           93.4997         0.671429   
    120. A(C  14,Ni 12,N  23)           61.9384         0.395591   
    121. A(O  13,Ni 12,C  14)           25.5532         0.405695   
    122. A(C  16,Ni 12,N  23)           31.2186         0.382384   
    123. A(C  16,Ni 12,C  31)          121.5991         0.237286   
    124. A(C  14,Ni 12,C  31)          147.9629         0.243961   
    125. A(O  30,Ni 12,C  31)           24.3820         0.383379   
    126. A(O  13,Ni 12,C  31)          155.7815         0.383215   
    127. A(C  14,Ni 12,O  30)          153.3695         0.405871   
    128. A(N  23,Ni 12,C  31)          105.9284         0.373828   
    129. A(O  11,Ni 12,O  30)           89.1615         0.690141   
    130. A(O  11,Ni 12,C  14)          115.4534         0.405441   
    131. A(O  13,Ni 12,N  23)           85.5028         0.671105   
    132. A(C  16,Ni 12,O  30)          119.0218         0.392221   
    133. A(O  11,Ni 12,C  31)           76.5664         0.382979   
    134. A(O  13,Ni 12,C  16)           59.9027         0.392053   
    135. A(O  11,Ni 12,O  13)           91.8364         0.689807   
    136. A(Ni 12,O  13,C  14)          115.8691         0.579978   
    137. A(O  13,C  14,O  15)          127.0550         0.502026   
    138. A(Ni 12,C  14,O  15)          165.3420         0.355414   
    139. A(Ni 12,C  14,O  13)           38.5777         0.347595   
    140. A(Ni 12,C  14,C  16)           74.6469         0.295406   
    141. A(O  15,C  14,C  16)          119.8194         0.418670   
    142. A(O  13,C  14,C  16)          113.1251         0.408995   
    143. A(C  14,C  16,H  50)          108.2600         0.313912   
    144. A(Ni 12,C  16,H  50)          145.5306         0.262927   
    145. A(C  17,C  16,N  23)          114.6532         0.378470   
    146. A(C  14,C  16,N  23)          105.0083         0.360928   
    147. A(Ni 12,C  16,N  23)           41.4928         0.299285   
    148. A(N  23,C  16,H  50)          111.7246         0.328454   
    149. A(C  17,C  16,H  50)          110.3370         0.328421   
    150. A(Ni 12,C  16,C  14)           70.9609         0.286515   
    151. A(C  14,C  16,C  17)          106.3911         0.360891   
    152. A(Ni 12,C  16,C  17)          102.4663         0.299256   
    153. A(C  18,C  17,C  22)          118.3870         0.433487   
    154. A(C  16,C  17,C  22)          121.8014         0.405067   
    155. A(C  16,C  17,C  18)          119.7683         0.404454   
    156. A(C  17,C  18,H  51)          118.9666         0.351555   
    157. A(C  17,C  18,C  19)          120.9609         0.436942   
    158. A(C  19,C  18,H  51)          120.0694         0.354703   
    159. A(C  18,C  19,H  52)          119.7278         0.357460   
    160. A(C  18,C  19,C  20)          120.1029         0.439040   
    161. A(C  20,C  19,H  52)          120.1692         0.355878   
    162. A(C  21,C  20,H  53)          120.1777         0.355988   
    163. A(C  19,C  20,H  53)          120.3171         0.355517   
    164. A(C  19,C  20,C  21)          119.5043         0.437593   
    165. A(C  22,C  21,H  54)          119.8186         0.356176   
    166. A(C  20,C  21,H  54)          119.8555         0.355776   
    167. A(C  20,C  21,C  22)          120.3251         0.438734   
    168. A(C  21,C  22,H  55)          119.8882         0.356596   
    169. A(C  17,C  22,H  55)          119.4157         0.354640   
    170. A(C  17,C  22,C  21)          120.6960         0.436697   
    171. A(C  16,N  23,C  24)          117.7176         0.407486   
    172. A(Ni 12,N  23,C  24)          134.3431         0.533342   
    173. A(Ni 12,N  23,C  16)          107.2886         0.492917   
    174. A(C  25,C  24,C  29)          115.9896         0.419986   
    175. A(N  23,C  24,C  29)          119.7491         0.429504   
    176. A(N  23,C  24,C  25)          124.2394         0.429568   
    177. A(C  24,C  25,H  56)          120.0517         0.349379   
    178. A(C  24,C  25,C  26)          121.3596         0.430899   
    179. A(C  26,C  25,H  56)          118.5643         0.357914   
    180. A(C  25,C  26,C  27)          121.4397         0.440039   
    181. A(C  27,C  26,H  57)          119.5054         0.355071   
    182. A(C  25,C  26,H  57)          119.0515         0.356639   
    183. A(C  26,C  27,C  28)          118.2536         0.435791   
    184. A(C  28,C  27,H  58)          120.8970         0.354011   
    185. A(C  26,C  27,H  58)          120.8478         0.355686   
    186. A(C  27,C  28,C  29)          121.0884         0.439902   
    187. A(C  29,C  28,H  59)          119.5801         0.358549   
    188. A(C  27,C  28,H  59)          119.3270         0.353718   
    189. A(C  24,C  29,C  28)          121.8560         0.432863   
    190. A(C  28,C  29,H  60)          120.9668         0.359574   
    191. A(C  24,C  29,H  60)          117.1756         0.349393   
    192. A(Ni 12,O  30,C  31)          120.2339         0.564909   
    193. A(C  32,C  31,C  41)          117.7692         0.415159   
    194. A(O  30,C  31,C  41)          123.2053         0.443995   
    195. A(Ni 12,C  31,C  41)          111.1290         0.308586   
    196. A(O  30,C  31,C  32)          118.8587         0.434691   
    197. A(Ni 12,C  31,O  30)           35.3842         0.321736   
    198. A(Ni 12,C  31,C  32)          121.6696         0.302831   
    199. A(C  33,C  32,C  34)          121.5432         0.412886   
    200. A(C  31,C  32,C  34)          120.7429         0.427906   
    201. A(C  31,C  32,C  33)          117.7134         0.392534   
    202. A(H  62,C  33,H  63)          106.5075         0.291068   
    203. A(H  61,C  33,H  63)          109.8545         0.291008   
    204. A(C  32,C  33,H  63)          110.0228         0.331215   
    205. A(H  61,C  33,H  62)          108.9964         0.290831   
    206. A(C  32,C  33,H  62)          110.0472         0.331002   
    207. A(C  32,C  33,H  61)          111.2916         0.330930   
    208. A(C  32,C  34,C  35)          121.8353         0.437226   
    209. A(C  35,C  34,H  64)          118.3637         0.350036   
    210. A(C  32,C  34,H  64)          119.7890         0.360082   
    211. A(C  36,C  35,C  40)          119.6217         0.420821   
    212. A(C  34,C  35,C  40)          118.3706         0.419582   
    213. A(C  34,C  35,C  36)          122.0076         0.425578   
    214. A(C  35,C  36,C  37)          121.3310         0.436896   
    215. A(C  37,C  36,H  65)          120.2266         0.359006   
    216. A(C  35,C  36,H  65)          118.4395         0.351202   
    217. A(C  36,C  37,C  38)          119.4097         0.437469   
    218. A(C  38,C  37,H  66)          119.8773         0.351774   
    219. A(C  36,C  37,H  66)          120.7077         0.359151   
    220. A(C  37,C  38,C  39)          120.6337         0.438226   
    221. A(C  39,C  38,H  67)          120.1043         0.359787   
    222. A(C  37,C  38,H  67)          119.2615         0.351821   
    223. A(C  38,C  39,C  40)          121.5847         0.434612   
    224. A(C  40,C  39,H  68)          118.6274         0.349943   
    225. A(C  38,C  39,H  68)          119.7796         0.360663   
    226. A(C  39,C  40,C  41)          122.7091         0.422169   
    227. A(C  35,C  40,C  41)          119.9078         0.419113   
    228. A(C  35,C  40,C  39)          117.3584         0.417927   
    229. A(C  31,C  41,C  40)          120.5642         0.423653   
    230. A(C   9,C  41,C  40)          120.8509         0.405155   
    231. A(C   9,C  41,C  31)          118.5246         0.405423   
    232. D(C   2,C   1,C   0,H  44)    139.9622         0.013057   
    233. D(C  10,C   1,C   0,H  42)     77.1474         0.013057   
    234. D(C   2,C   1,C   0,H  43)     18.0054         0.013057   
    235. D(C   2,C   1,C   0,H  42)   -103.2116         0.013057   
    236. D(C  10,C   1,C   0,H  43)   -161.6356         0.013057   
    237. D(C   3,C   2,C   1,C  10)      1.7257         0.033586   
    238. D(H  45,C   2,C   1,C   0)      0.6012         0.033586   
    239. D(H  45,C   2,C   1,C  10)   -179.7730         0.033586   
    240. D(C   3,C   2,C   1,C   0)   -177.9001         0.033586   
    241. D(C   8,C   3,C   2,H  45)    179.5009         0.023138   
    242. D(C   4,C   3,C   2,H  45)     -1.0827         0.023138   
    243. D(C   8,C   3,C   2,C   1)     -1.9747         0.023138   
    244. D(C   4,C   3,C   2,C   1)    177.4417         0.023138   
    245. D(C   5,C   4,C   3,C   8)      1.5520         0.024207   
    246. D(C   5,C   4,C   3,C   2)   -177.8575         0.024207   
    247. D(H  46,C   4,C   3,C   2)      1.6250         0.024207   
    248. D(H  46,C   4,C   3,C   8)   -178.9656         0.024207   
    249. D(C   6,C   5,C   4,C   3)      0.9642         0.031700   
    250. D(H  47,C   5,C   4,H  46)      0.5237         0.031700   
    251. D(H  47,C   5,C   4,C   3)    179.9973         0.031700   
    252. D(C   6,C   5,C   4,H  46)   -178.5094         0.031700   
    253. D(H  48,C   6,C   5,C   4)    177.9642         0.024434   
    254. D(H  48,C   6,C   5,H  47)     -1.0769         0.024434   
    255. D(C   7,C   6,C   5,H  47)    179.2228         0.024434   
    256. D(C   7,C   6,C   5,C   4)     -1.7361         0.024434   
    257. D(H  49,C   7,C   6,H  48)     -0.6511         0.032534   
    258. D(H  49,C   7,C   6,C   5)    179.0467         0.032534   
    259. D(C   8,C   7,C   6,H  48)   -179.7537         0.032534   
    260. D(C   8,C   7,C   6,C   5)     -0.0560         0.032534   
    261. D(C   7,C   8,C   3,C   4)     -3.2124         0.020200   
    262. D(C   7,C   8,C   3,C   2)    176.2169         0.020200   
    263. D(C   9,C   8,C   7,H  49)      1.7473         0.022025   
    264. D(C   9,C   8,C   7,C   6)   -179.1405         0.022025   
    265. D(C   3,C   8,C   7,H  49)   -176.6089         0.022025   
    266. D(C   3,C   8,C   7,C   6)      2.5033         0.022025   
    267. D(C   9,C   8,C   3,C   4)    178.3839         0.020200   
    268. D(C   9,C   8,C   3,C   2)     -2.1868         0.020200   
    269. D(C  41,C   9,C   8,C   3)   -176.1371         0.023274   
    270. D(C  10,C   9,C   8,C   7)   -171.6769         0.023274   
    271. D(C  41,C   9,C   8,C   7)      5.5522         0.023274   
    272. D(C  10,C   9,C   8,C   3)      6.6338         0.023274   
    273. D(O  11,C  10,C   9,C   8)    176.7096         0.023046   
    274. D(O  11,C  10,C   9,C  41)     -0.5923         0.023046   
    275. D(C   1,C  10,C   9,C  41)    175.9148         0.023046   
    276. D(C   9,C  10,C   1,C   2)      2.6487         0.018074   
    277. D(O  11,C  10,C   1,C   0)     -0.9830         0.018074   
    278. D(C   1,C  10,C   9,C   8)     -6.7833         0.023046   
    279. D(C   9,C  10,C   1,C   0)   -177.7048         0.018074   
    280. D(O  11,C  10,C   1,C   2)    179.3705         0.018074   
    281. D(Ni 12,O  11,C  10,C   9)    -67.8453         0.050975   
    282. D(Ni 12,O  11,C  10,C   1)    115.6497         0.050975   
    283. D(C  31,Ni 12,O  11,C  10)     54.8637         0.010000   
    284. D(O  30,Ni 12,O  11,C  10)     33.7773         0.010000   
    285. D(O  13,Ni 12,O  11,C  10)   -146.6288         0.010000   
    286. D(C  16,Ni 12,O  11,C  10)   -177.1321         0.010000   
    287. D(C  14,Ni 12,O  11,C  10)   -156.7554         0.010000   
    288. D(C  14,O  13,Ni 12,C  31)    -98.0971         0.010000   
    289. D(C  14,O  13,Ni 12,C  16)      2.7249         0.010000   
    290. D(C  14,O  13,Ni 12,N  23)     21.6523         0.010000   
    291. D(C  14,O  13,Ni 12,O  11)   -158.4048         0.010000   
    292. D(O  13,C  14,Ni 12,C  16)   -175.8241         0.010000   
    293. D(O  13,C  14,Ni 12,O  11)     24.0417         0.010000   
    294. D(O  13,C  14,Ni 12,N  23)   -155.3648         0.010000   
    295. D(O  15,C  14,O  13,Ni 12)    175.9037         0.070449   
    296. D(O  15,C  14,Ni 12,N  23)   -168.3844         0.010000   
    297. D(O  15,C  14,Ni 12,C  16)    171.1563         0.010000   
    298. D(O  15,C  14,Ni 12,O  13)    -13.0196         0.010000   
    299. D(O  15,C  14,Ni 12,O  11)     11.0221         0.010000   
    300. D(O  13,C  14,Ni 12,C  31)    130.0394         0.010000   
    301. D(C  16,C  14,O  13,Ni 12)     -4.3790         0.070449   
    302. D(O  13,C  14,Ni 12,O  30)    179.9769         0.010000   
    303. D(N  23,C  16,C  14,O  13)    -21.2621         0.010000   
    304. D(C  17,C  16,C  14,O  15)    -79.5833         0.010000   
    305. D(C  17,C  16,C  14,O  13)    100.6768         0.010000   
    306. D(C  17,C  16,C  14,Ni 12)     97.8467         0.010000   
    307. D(Ni 12,C  16,C  14,O  13)      2.8301         0.010000   
    308. D(C  17,C  16,Ni 12,O  30)     74.5850         0.010000   
    309. D(C  17,C  16,Ni 12,N  23)    113.2569         0.010000   
    310. D(C  17,C  16,Ni 12,C  14)   -103.2641         0.010000   
    311. D(C  17,C  16,Ni 12,O  13)   -105.3447         0.010000   
    312. D(C  17,C  16,Ni 12,O  11)    -69.4437         0.010000   
    313. D(C  14,C  16,Ni 12,C  31)    149.6863         0.010000   
    314. D(C  14,C  16,Ni 12,O  30)    177.8490         0.010000   
    315. D(C  14,C  16,Ni 12,N  23)   -143.4790         0.010000   
    316. D(Ni 12,C  16,C  14,O  15)   -177.4299         0.010000   
    317. D(N  23,C  16,C  14,Ni 12)    -24.0922         0.010000   
    318. D(C  14,C  16,Ni 12,O  13)     -2.0806         0.010000   
    319. D(C  14,C  16,Ni 12,O  11)     33.8204         0.010000   
    320. D(C  22,C  17,C  16,C  14)    104.8771         0.013986   
    321. D(C  22,C  17,C  16,Ni 12)    178.4249         0.013986   
    322. D(C  18,C  17,C  16,H  50)    170.0945         0.013986   
    323. D(C  18,C  17,C  16,N  23)     42.9049         0.013986   
    324. D(C  18,C  17,C  16,C  14)    -72.6899         0.013986   
    325. D(C  18,C  17,C  16,Ni 12)      0.8579         0.013986   
    326. D(H  51,C  18,C  17,C  22)   -177.7181         0.026152   
    327. D(H  51,C  18,C  17,C  16)     -0.0684         0.026152   
    328. D(C  19,C  18,C  17,C  22)      1.6431         0.026152   
    329. D(C  19,C  18,C  17,C  16)    179.2928         0.026152   
    330. D(H  52,C  19,C  18,H  51)     -1.3643         0.029255   
    331. D(H  52,C  19,C  18,C  17)    179.2815         0.029255   
    332. D(C  20,C  19,C  18,H  51)    178.7628         0.029255   
    333. D(C  20,C  19,C  18,C  17)     -0.5914         0.029255   
    334. D(H  53,C  20,C  19,H  52)     -0.2655         0.027669   
    335. D(H  53,C  20,C  19,C  18)    179.6069         0.027669   
    336. D(C  21,C  20,C  19,H  52)    179.3996         0.027669   
    337. D(C  21,C  20,C  19,C  18)     -0.7280         0.027669   
    338. D(H  54,C  21,C  20,H  53)      0.3009         0.028134   
    339. D(H  54,C  21,C  20,C  19)   -179.3646         0.028134   
    340. D(C  22,C  21,C  20,H  53)   -179.3699         0.028134   
    341. D(C  22,C  21,C  20,C  19)      0.9646         0.028134   
    342. D(H  55,C  22,C  21,H  54)      0.5150         0.028534   
    343. D(C  17,C  22,C  21,H  54)   -179.5552         0.028534   
    344. D(C  17,C  22,C  21,C  20)      0.1157         0.028534   
    345. D(H  55,C  22,C  17,C  18)    178.5275         0.026632   
    346. D(H  55,C  22,C  21,C  20)   -179.8141         0.028534   
    347. D(H  55,C  22,C  17,C  16)      0.9281         0.026632   
    348. D(C  21,C  22,C  17,C  18)     -1.4026         0.026632   
    349. D(C  21,C  22,C  17,C  16)   -179.0021         0.026632   
    350. D(C  24,N  23,Ni 12,C  14)    167.4375         0.010000   
    351. D(C  24,N  23,Ni 12,O  13)    157.0468         0.010000   
    352. D(C  16,N  23,Ni 12,C  31)    125.4789         0.010000   
    353. D(C  16,N  23,Ni 12,O  30)    146.8097         0.010000   
    354. D(C  16,N  23,Ni 12,C  14)    -22.3918         0.010000   
    355. D(C  16,N  23,Ni 12,O  13)    -32.7824         0.010000   
    356. D(C  24,N  23,O  11,C  10)     10.5421         0.010000   
    357. D(C  24,N  23,Ni 12,C  16)   -170.1708         0.010000   
    358. D(C  16,N  23,O  11,C  10)   -178.5220         0.010000   
    359. D(C  24,N  23,C  16,H  50)    -35.1747         0.017399   
    360. D(C  24,N  23,C  16,C  17)     91.3025         0.017399   
    361. D(C  24,N  23,C  16,C  14)   -152.3055         0.017399   
    362. D(C  24,N  23,C  16,Ni 12)    172.0729         0.017399   
    363. D(Ni 12,N  23,C  16,H  50)    152.7524         0.017399   
    364. D(Ni 12,N  23,C  16,C  17)    -80.7703         0.017399   
    365. D(Ni 12,N  23,C  16,C  14)     35.6216         0.017399   
    366. D(C  24,N  23,Ni 12,C  31)    -44.6918         0.010000   
    367. D(C  24,N  23,Ni 12,O  30)    -23.3610         0.010000   
    368. D(C  29,C  24,N  23,C  16)    163.1344         0.036243   
    369. D(C  29,C  24,N  23,Ni 12)    -27.4759         0.036243   
    370. D(C  25,C  24,N  23,C  16)    -15.0938         0.036243   
    371. D(C  25,C  24,N  23,Ni 12)    154.2959         0.036243   
    372. D(H  56,C  25,C  24,C  29)    177.1356         0.021940   
    373. D(H  56,C  25,C  24,N  23)     -4.5757         0.021940   
    374. D(C  26,C  25,C  24,C  29)     -1.0378         0.021940   
    375. D(C  26,C  25,C  24,N  23)    177.2509         0.021940   
    376. D(H  57,C  26,C  25,H  56)      1.7512         0.029647   
    377. D(H  57,C  26,C  25,C  24)    179.9511         0.029647   
    378. D(C  27,C  26,C  25,H  56)   -177.5733         0.029647   
    379. D(C  27,C  26,C  25,C  24)      0.6266         0.029647   
    380. D(H  58,C  27,C  26,H  57)      0.6696         0.028048   
    381. D(H  58,C  27,C  26,C  25)    179.9911         0.028048   
    382. D(C  28,C  27,C  26,H  57)   -178.8666         0.028048   
    383. D(C  28,C  27,C  26,C  25)      0.4549         0.028048   
    384. D(H  59,C  28,C  27,H  58)      0.1525         0.026436   
    385. D(H  59,C  28,C  27,C  26)    179.6885         0.026436   
    386. D(C  29,C  28,C  27,H  58)    179.3751         0.026436   
    387. D(C  29,C  28,C  27,C  26)     -1.0889         0.026436   
    388. D(H  60,C  29,C  28,H  59)     -0.6023         0.031357   
    389. D(H  60,C  29,C  28,C  27)   -179.8230         0.031357   
    390. D(C  24,C  29,C  28,H  59)    179.8741         0.031357   
    391. D(C  24,C  29,C  28,C  27)      0.6534         0.031357   
    392. D(H  60,C  29,C  24,C  25)   -179.1333         0.021903   
    393. D(H  60,C  29,C  24,N  23)      2.4962         0.021903   
    394. D(C  28,C  29,C  24,C  25)      0.4075         0.021903   
    395. D(C  28,C  29,C  24,N  23)   -177.9630         0.021903   
    396. D(C  31,O  30,O  13,C  14)   -100.1431         0.010000   
    397. D(C  31,O  30,Ni 12,N  23)   -122.0794         0.010000   
    398. D(C  31,O  30,Ni 12,C  16)   -103.1458         0.010000   
    399. D(C  31,O  30,Ni 12,C  14)   -100.4348         0.010000   
    400. D(C  31,O  30,Ni 12,O  11)     57.9587         0.010000   
    401. D(C  41,C  31,O  30,Ni 12)    -79.7738         0.051333   
    402. D(C  32,C  31,O  30,Ni 12)    105.0306         0.051333   
    403. D(C  32,C  31,Ni 12,C  16)     -5.0742         0.010000   
    404. D(C  32,C  31,Ni 12,C  14)     27.4362         0.010000   
    405. D(C  32,C  31,Ni 12,O  13)     81.0505         0.010000   
    406. D(C  32,C  31,Ni 12,O  11)    144.2620         0.010000   
    407. D(O  30,C  31,Ni 12,N  23)     61.5822         0.010000   
    408. D(O  30,C  31,Ni 12,C  16)     91.2876         0.010000   
    409. D(O  30,C  31,Ni 12,C  14)    123.7980         0.010000   
    410. D(O  30,C  31,Ni 12,O  13)    177.4123         0.010000   
    411. D(O  30,C  31,Ni 12,O  11)   -119.3762         0.010000   
    412. D(C  34,C  32,C  31,O  30)   -178.7618         0.019700   
    413. D(C  34,C  32,C  31,Ni 12)   -137.6833         0.019700   
    414. D(C  33,C  32,C  31,C  41)   -173.9637         0.019700   
    415. D(C  33,C  32,C  31,O  30)      1.4937         0.019700   
    416. D(C  33,C  32,C  31,Ni 12)     42.5723         0.019700   
    417. D(H  63,C  33,C  32,C  31)     48.4137         0.013198   
    418. D(H  62,C  33,C  32,C  34)    111.6127         0.013198   
    419. D(H  62,C  33,C  32,C  31)    -68.6450         0.013198   
    420. D(H  61,C  33,C  32,C  34)     -9.3243         0.013198   
    421. D(H  61,C  33,C  32,C  31)    170.4180         0.013198   
    422. D(H  64,C  34,C  32,C  33)      0.0051         0.033206   
    423. D(H  64,C  34,C  32,C  31)   -179.7295         0.033206   
    424. D(C  35,C  34,C  32,C  33)   -178.7147         0.033206   
    425. D(C  35,C  34,C  32,C  31)      1.5507         0.033206   
    426. D(C  40,C  35,C  34,H  64)    177.2214         0.023277   
    427. D(C  40,C  35,C  34,C  32)     -4.0412         0.023277   
    428. D(C  36,C  35,C  34,H  64)     -2.6423         0.023277   
    429. D(C  36,C  35,C  34,C  32)    176.0951         0.023277   
    430. D(H  65,C  36,C  35,C  40)   -179.1111         0.024099   
    431. D(H  65,C  36,C  35,C  34)      0.7510         0.024099   
    432. D(C  37,C  36,C  35,C  40)      1.5074         0.024099   
    433. D(C  37,C  36,C  35,C  34)   -178.6306         0.024099   
    434. D(H  66,C  37,C  36,H  65)      0.4553         0.031754   
    435. D(H  66,C  37,C  36,C  35)    179.8259         0.031754   
    436. D(C  38,C  37,C  36,H  65)   -178.6959         0.031754   
    437. D(C  38,C  37,C  36,C  35)      0.6747         0.031754   
    438. D(H  67,C  38,C  37,H  66)     -0.9834         0.024470   
    439. D(H  67,C  38,C  37,C  36)    178.1749         0.024470   
    440. D(C  39,C  38,C  37,H  66)    179.3006         0.024470   
    441. D(C  39,C  38,C  37,C  36)     -1.5411         0.024470   
    442. D(H  68,C  39,C  38,H  67)     -0.5888         0.032417   
    443. D(H  68,C  39,C  38,C  37)    179.1249         0.032417   
    444. D(C  40,C  39,C  38,H  67)   -179.5292         0.032417   
    445. D(C  40,C  39,C  38,C  37)      0.1844         0.032417   
    446. D(C  41,C  40,C  39,H  68)      1.1892         0.022224   
    447. D(C  41,C  40,C  39,C  38)   -179.8585         0.022224   
    448. D(C  35,C  40,C  39,H  68)   -177.0023         0.022224   
    449. D(C  35,C  40,C  39,C  38)      1.9500         0.022224   
    450. D(C  41,C  40,C  35,C  36)    178.9948         0.020423   
    451. D(C  41,C  40,C  35,C  34)     -0.8723         0.020423   
    452. D(C  39,C  40,C  35,C  36)     -2.7606         0.020423   
    453. D(C  39,C  40,C  35,C  34)    177.3723         0.020423   
    454. D(C  31,C  41,C  40,C  35)      8.3166         0.022974   
    455. D(C   9,C  41,C  40,C  39)      7.3033         0.022974   
    456. D(C   9,C  41,C  40,C  35)   -174.5496         0.022974   
    457. D(C  40,C  41,C  31,O  30)    174.1204         0.025143   
    458. D(C  40,C  41,C  31,Ni 12)    136.4637         0.025143   
    459. D(C   9,C  41,C  31,C  32)    172.1657         0.025143   
    460. D(C   9,C  41,C  31,O  30)     -3.0790         0.025143   
    461. D(C   9,C  41,C  31,Ni 12)    -40.7357         0.025143   
    462. D(C  40,C  41,C   9,C  10)   -126.1008         0.013897   
    463. D(C  40,C  41,C   9,C   8)     56.6091         0.013897   
    464. D(C  31,C  41,C   9,C  10)     51.0903         0.013897   
    465. D(C  31,C  41,C  40,C  39)   -169.8305         0.022974   
    466. D(C  31,C  41,C   9,C   8)   -126.1998         0.013897   
    -----------------------------------------------------------------

Number of atoms                         .... 69
Number of degrees of freedom            .... 466


         *************************************************************
         *                GEOMETRY OPTIMIZATION CYCLE   1            *
         *************************************************************
---------------------------------
CARTESIAN COORDINATES (ANGSTROEM)
---------------------------------
  C      1.034375   -3.613116   -5.858811
  C      1.068644   -2.976504   -4.503274
  C     -0.000982   -2.998424   -3.659616
  C      0.032997   -2.356810   -2.404400
  C     -1.084708   -2.332143   -1.554680
  C     -1.055293   -1.669319   -0.356328
  C      0.109267   -0.983886    0.021150
  C      1.218840   -1.002152   -0.776217
  C      1.240240   -1.707637   -2.004383
  C      2.376707   -1.757016   -2.836399
  C      2.298057   -2.322508   -4.126321
  O      3.277458   -2.347295   -4.963550
  Ni     4.106192   -0.990629   -5.860448
  O      4.414492   -2.057289   -7.308009
  C      5.348148   -1.690213   -8.073584
  O      5.773418   -2.284826   -9.057964
  C      5.979902   -0.310331   -7.659855
  C      7.252757   -0.627966   -6.937059
  C      7.203262   -1.162289   -5.650183
  C      8.360275   -1.477540   -4.967418
  C      9.596504   -1.276116   -5.563289
  C      9.658620   -0.771523   -6.851515
  C      8.498298   -0.451448   -7.532853
  N      4.963022    0.340660   -6.843081
  C      4.947889    1.683329   -6.817234
  C      6.013541    2.501509   -7.267747
  C      5.912759    3.876064   -7.265824
  C      4.771223    4.516252   -6.811795
  C      3.718689    3.733679   -6.342870
  C      3.796590    2.364773   -6.349505
  O      3.823655    0.096078   -4.423421
  C      4.289524   -0.230189   -3.254298
  C      5.447386    0.464216   -2.747946
  C      6.029861    1.553809   -3.592303
  C      5.983187    0.135896   -1.537425
  C      5.455963   -0.906708   -0.749257
  C      6.052869   -1.301094    0.459748
  C      5.544727   -2.334540    1.200991
  C      4.413662   -3.023312    0.738104
  C      3.799804   -2.651950   -0.425418
  C      4.278324   -1.571021   -1.203784
  C      3.661700   -1.165712   -2.406494
  H      1.574531   -4.561133   -5.843854
  H      0.011539   -3.792858   -6.191645
  H      1.553713   -2.965884   -6.565933
  H     -0.917830   -3.498951   -3.958803
  H     -1.986475   -2.846641   -1.871447
  H     -1.924631   -1.656976    0.291889
  H      0.119930   -0.432025    0.954465
  H      2.101860   -0.456208   -0.477723
  H      6.192921    0.260616   -8.577298
  H      6.227995   -1.340247   -5.187536
  H      8.298967   -1.880198   -3.965441
  H     10.507121   -1.516415   -5.028113
  H     10.621576   -0.621546   -7.326571
  H      8.554948   -0.060413   -8.540446
  H      6.940672    2.051559   -7.594992
  H      6.753644    4.467458   -7.618922
  H      4.702320    5.598253   -6.814442
  H      2.817893    4.217383   -5.978224
  H      2.977436    1.759295   -5.987744
  H      6.786915    2.116439   -3.045621
  H      6.481397    1.130412   -4.489309
  H      5.242099    2.225306   -3.929922
  H      6.852767    0.671991   -1.169056
  H      6.939632   -0.772996    0.794652
  H      6.015296   -2.632379    2.131504
  H      4.031181   -3.860104    1.311708
  H      2.938104   -3.200957   -0.776394

----------------------------
CARTESIAN COORDINATES (A.U.)
----------------------------
  NO LB      ZA    FRAG     MASS         X           Y           Z
   0 C     6.0000    0    12.011    1.954685   -6.827800  -11.071548
   1 C     6.0000    0    12.011    2.019444   -5.624777   -8.509955
   2 C     6.0000    0    12.011   -0.001856   -5.666200   -6.915672
   3 C     6.0000    0    12.011    0.062355   -4.453725   -4.543658
   4 C     6.0000    0    12.011   -2.049801   -4.407112   -2.937919
   5 C     6.0000    0    12.011   -1.994215   -3.154556   -0.673362
   6 C     6.0000    0    12.011    0.206485   -1.859275    0.039968
   7 C     6.0000    0    12.011    2.303274   -1.893793   -1.466838
   8 C     6.0000    0    12.011    2.343714   -3.226966   -3.787735
   9 C     6.0000    0    12.011    4.491325   -3.320279   -5.360017
  10 C     6.0000    0    12.011    4.342698   -4.388904   -7.797617
  11 O     8.0000    0    15.999    6.193498   -4.435745   -9.379750
  12 Ni   28.0000    0    58.700    7.759578   -1.872018  -11.074642
  13 O     8.0000    0    15.999    8.342181   -3.887713  -13.810136
  14 C     6.0000    0    12.011   10.106535   -3.194040  -15.256863
  15 O     8.0000    0    15.999   10.910179   -4.317695  -17.117071
  16 C     6.0000    0    12.011   11.300377   -0.586441  -14.475028
  17 C     6.0000    0    12.011   13.705724   -1.186684  -13.109142
  18 C     6.0000    0    12.011   13.612192   -2.196408  -10.677298
  19 C     6.0000    0    12.011   15.798630   -2.792146   -9.387060
  20 C     6.0000    0    12.011   18.134764   -2.411510  -10.513093
  21 C     6.0000    0    12.011   18.252147   -1.457967  -12.947487
  22 C     6.0000    0    12.011   16.059456   -0.853113  -14.235029
  23 N     7.0000    0    14.007    9.378752    0.643754  -12.931549
  24 C     6.0000    0    12.011    9.350155    3.181031  -12.882705
  25 C     6.0000    0    12.011   11.363946    4.727167  -13.734051
  26 C     6.0000    0    12.011   11.173495    7.324699  -13.730417
  27 C     6.0000    0    12.011    9.016305    8.534479  -12.872427
  28 C     6.0000    0    12.011    7.027304    7.055631  -11.986287
  29 C     6.0000    0    12.011    7.174515    4.468773  -11.998826
  30 O     8.0000    0    15.999    7.225661    0.181561   -8.359054
  31 C     6.0000    0    12.011    8.106026   -0.434994   -6.149732
  32 C     6.0000    0    12.011   10.294068    0.877241   -5.192865
  33 C     6.0000    0    12.011   11.394786    2.936273   -6.788469
  34 C     6.0000    0    12.011   11.306585    0.256806   -2.905312
  35 C     6.0000    0    12.011   10.310276   -1.713430   -1.415891
  36 C     6.0000    0    12.011   11.438265   -2.458711    0.868798
  37 C     6.0000    0    12.011   10.478016   -4.411641    2.269544
  38 C     6.0000    0    12.011    8.340612   -5.713232    1.394814
  39 C     6.0000    0    12.011    7.180589   -5.011459   -0.803924
  40 C     6.0000    0    12.011    8.084861   -2.968799   -2.274822
  41 C     6.0000    0    12.011    6.919610   -2.202876   -4.547615
  42 H     1.0000    0     1.008    2.975432   -8.619292  -11.043284
  43 H     1.0000    0     1.008    0.021806   -7.167463  -11.700513
  44 H     1.0000    0     1.008    2.936092   -5.604709  -12.407815
  45 H     1.0000    0     1.008   -1.734447   -6.612059   -7.481053
  46 H     1.0000    0     1.008   -3.753894   -5.379372   -3.536522
  47 H     1.0000    0     1.008   -3.637025   -3.131231    0.551590
  48 H     1.0000    0     1.008    0.226635   -0.816409    1.803677
  49 H     1.0000    0     1.008    3.971940   -0.862108   -0.902766
  50 H     1.0000    0     1.008   11.702925    0.492493  -16.208744
  51 H     1.0000    0     1.008   11.769205   -2.532700   -9.803022
  52 H     1.0000    0     1.008   15.682775   -3.553059   -7.493597
  53 H     1.0000    0     1.008   19.855581   -2.865609   -9.501757
  54 H     1.0000    0     1.008   20.071870   -1.174552  -13.845213
  55 H     1.0000    0     1.008   16.166509   -0.114164  -16.139104
  56 H     1.0000    0     1.008   13.115969    3.876885  -14.352455
  57 H     1.0000    0     1.008   12.762538    8.442272  -14.397676
  58 H     1.0000    0     1.008    8.886097   10.579165  -12.877429
  59 H     1.0000    0     1.008    5.325046    7.969699  -11.297206
  60 H     1.0000    0     1.008    5.626539    3.324586  -11.315196
  61 H     1.0000    0     1.008   12.825411    3.999490   -5.755390
  62 H     1.0000    0     1.008   12.248065    2.136169   -8.483565
  63 H     1.0000    0     1.008    9.906131    4.205219   -7.426476
  64 H     1.0000    0     1.008   12.949853    1.269879   -2.209196
  65 H     1.0000    0     1.008   13.114004   -1.460751    1.501675
  66 H     1.0000    0     1.008   11.367262   -4.974475    4.027959
  67 H     1.0000    0     1.008    7.617828   -7.294539    2.478769
  68 H     1.0000    0     1.008    5.552212   -6.048932   -1.467172

--------------------------------
INTERNAL COORDINATES (ANGSTROEM)
--------------------------------
 C      0   0   0     0.000000000000     0.00000000     0.00000000
 C      1   0   0     1.497975220514     0.00000000     0.00000000
 C      2   1   0     1.362475352893   122.38012181     0.00000000
 C      3   2   1     1.410102940956   121.66537024   182.09987638
 C      4   3   2     1.404242502673   121.83375279   177.44174383
 C      5   4   3     1.369762173921   121.38553734   182.14252215
 C      6   5   4     1.403035292348   119.31440121     0.96423667
 C      7   6   5     1.366484548677   120.69407547   358.26391920
 C      8   7   6     1.416530539304   121.65798645   359.94403669
 C      9   8   7     1.409342453766   122.78486517   180.85950512
 C     10   9   8     1.410626027921   120.59242100   188.32309423
 O     11  10   9     1.288717623303   124.01486822   176.70958483
 Ni    12  11  10     1.825313315767   130.53969511   292.15465054
 O     13  12  11     1.824347909342    91.83638936   213.37115267
 C     14  13  12     1.261968064864   115.86908078   201.59516831
 O     15  14  13     1.226141581168   127.05496425   175.90367789
 C     15  14  13     1.573009579081   113.12505075   355.62096452
 C     17  15  14     1.497827060066   106.39113852   100.67680074
 C     18  17  15     1.394274242296   119.76830128   287.31007852
 C     19  18  17     1.379938520513   120.96087441   179.29278764
 C     20  19  18     1.387045787585   120.10288844   359.40857966
 C     21  20  19     1.384918308125   119.50427107   359.27195328
 C     22  21  20     1.383118440175   120.32510819     0.96457407
 N     17  15  14     1.457722190116   105.00830233   338.73794243
 C     24  17  15     1.343003022580   117.71758659   207.69450415
 C     25  24  17     1.417037282739   124.23937197   344.90621416
 C     26  25  24     1.378246043883   121.35956023   177.25088762
 C     27  26  25     1.385311317892   121.43971492     0.62658294
 C     28  27  26     1.392888716700   118.25360220     0.45490013
 C     29  28  27     1.371136837030   121.08835338   358.91110674
 O     13  12  11     1.823679209441    89.16145598    33.77727268
 C     31  13  12     1.300127943542   120.23386425    57.95873751
 C     32  31  13     1.441955291600   118.85867926   105.03064683
 C     33  32  31     1.496472109571   117.71335048     1.49372735
 C     33  32  31     1.363905357949   120.74291595   181.23819108
 C     35  33  32     1.409325031076   121.83534139     1.55074910
 C     36  35  33     1.404823896386   122.00756934   176.09506194
 C     37  36  35     1.369547411421   121.33100318   181.36938755
 C     38  37  36     1.402846847299   119.40966090     0.67472889
 C     39  38  37     1.366936291014   120.63366998   358.45889361
 C     40  39  38     1.415359503235   121.58469446     0.18441641
 C     32  31  13     1.410013432887   123.20530288   280.22620123
 H      1   2   3     1.091205044194   110.21157268   256.78839866
 H      1   2   3     1.090540756238   111.57272555    18.00544506
 H      1   2   3     1.090248936231   108.88836795   139.96216821
 H      3   2   1     1.086577375893   119.95652950     0.60117531
 H      5   4   3     1.085464530320   118.44626026     1.62496530
 H      6   5   4     1.084475074394   120.74505232   179.99734658
 H      7   6   5     1.084315983519   119.23409115   177.96420378
 H      8   7   6     1.080221199372   119.71985890   179.04669325
 H     17  15  14     1.101389681003   108.25999842   219.26594091
 H     19  18  17     1.094009605836   118.96664162   359.93159503
 H     20  19  18     1.081596063398   119.72780516   179.28152656
 H     21  20  19     1.083226791150   120.31713993   179.60688284
 H     22  21  20     1.084184283967   119.85551442   180.63537167
 H     23  22  21     1.082294436544   119.88820126   180.18593428
 H     26  25  24     1.081256761221   120.05167689   355.42432412
 H     27  26  25     1.086974076998   119.05146365   179.95111788
 H     28  27  26     1.084195920495   120.84776699   179.99109618
 H     29  28  27     1.085527382680   119.32698163   179.68846672
 H     30  29  28     1.080966190647   120.96682502   180.17698999
 H     34  33  32     1.090203873108   111.29164061   170.41799599
 H     34  33  32     1.089848403651   110.04715680   291.35497884
 H     34  33  32     1.088790052680   110.02280180    48.41372958
 H     35  33  32     1.085938739334   119.78897268   180.27050074
 H     37  36  35     1.085079169918   118.43952609     0.75097016
 H     38  37  36     1.084434275026   120.70765654   179.82591012
 H     39  38  37     1.084220510524   119.26145550   178.17490226
 H     40  39  38     1.080333156311   119.77964929   179.12486730

---------------------------
INTERNAL COORDINATES (A.U.)
---------------------------
 C      0   0   0     0.000000000000     0.00000000     0.00000000
 C      1   0   0     2.830762922172     0.00000000     0.00000000
 C      2   1   0     2.574705281185   122.38012181     0.00000000
 C      3   2   1     2.664708379044   121.66537024   182.09987638
 C      4   3   2     2.653633755665   121.83375279   177.44174383
 C      5   4   3     2.588475377315   121.38553734   182.14252215
 C      6   5   4     2.651352458763   119.31440121     0.96423667
 C      7   6   5     2.582281563235   120.69407547   358.26391920
 C      8   7   6     2.676854779620   121.65798645   359.94403669
 C      9   8   7     2.663271266526   122.78486517   180.85950512
 C     10   9   8     2.665696870152   120.59242100   188.32309423
 O     11  10   9     2.435323372000   124.01486822   176.70958483
 Ni    12  11  10     3.449342275399   130.53969511   292.15465054
 O     13  12  11     3.447517921648    91.83638936   213.37115267
 C     14  13  12     2.384774032348   115.86908078   201.59516831
 O     15  14  13     2.317071789821   127.05496425   175.90367789
 C     15  14  13     2.972557310498   113.12505075   355.62096452
 C     17  15  14     2.830482939501   106.39113852   100.67680074
 C     18  17  15     2.634796473520   119.76830128   287.31007852
 C     19  18  17     2.607705885418   120.96087441   179.29278764
 C     20  19  18     2.621136673745   120.10288844   359.40857966
 C     21  20  19     2.617116320211   119.50427107   359.27195328
 C     22  21  20     2.613715062708   120.32510819     0.96457407
 N     17  15  14     2.754695718659   105.00830233   338.73794243
 C     24  17  15     2.537907909705   117.71758659   207.69450415
 C     25  24  17     2.677812385933   124.23937197   344.90621416
 C     26  25  24     2.604507568098   121.35956023   177.25088762
 C     27  26  25     2.617859001038   121.43971492     0.62658294
 C     28  27  26     2.632178209592   118.25360220     0.45490013
 C     29  28  27     2.591073114119   121.08835338   358.91110674
 O     13  12  11     3.446254261969    89.16145598    33.77727268
 C     31  13  12     2.456885752353   120.23386425    57.95873751
 C     32  31  13     2.724900598482   118.85867926   105.03064683
 C     33  32  31     2.827922454140   117.71335048     1.49372735
 C     33  32  31     2.577407599111   120.74291595   181.23819108
 C     35  33  32     2.663238342413   121.83534139     1.55074910
 C     36  35  33     2.654732430558   122.00756934   176.09506194
 C     37  36  35     2.588069535006   121.33100318   181.36938755
 C     38  37  36     2.650996349231   119.40966090     0.67472889
 C     39  38  37     2.583135232535   120.63366998   358.45889361
 C     40  39  38     2.674641842157   121.58469446     0.18441641
 C     32  31  13     2.664539233306   123.20530288   280.22620123
 H      1   2   3     2.062078689480   110.21157268   256.78839866
 H      1   2   3     2.060823367169   111.57272555    18.00544506
 H      1   2   3     2.060271907275   108.88836795   139.96216821
 H      3   2   1     2.053333663752   119.95652950     0.60117531
 H      5   4   3     2.051230690390   118.44626026     1.62496530
 H      6   5   4     2.049360889669   120.74505232   179.99734658
 H      7   6   5     2.049060251485   119.23409115   177.96420378
 H      8   7   6     2.041322230868   119.71985890   179.04669325
 H     17  15  14     2.081324863822   108.25999842   219.26594091
 H     19  18  17     2.067378542910   118.96664162   359.93159503
 H     20  19  18     2.043920347349   119.72780516   179.28152656
 H     21  20  19     2.047001976201   120.31713993   179.60688284
 H     22  21  20     2.048811375399   119.85551442   180.63537167
 H     23  22  21     2.045240081335   119.88820126   180.18593428
 H     26  25  24     2.043279159158   120.05167689   355.42432412
 H     27  26  25     2.054083320197   119.05146365   179.95111788
 H     28  27  26     2.048833365251   120.84776699   179.99109618
 H     29  28  27     2.051349464137   119.32698163   179.68846672
 H     30  29  28     2.042730060350   120.96682502   180.17698999
 H     34  33  32     2.060186750315   111.29164061   170.41799599
 H     34  33  32     2.059515010392   110.04715680   291.35497884
 H     34  33  32     2.057515016902   110.02280180    48.41372958
 H     35  33  32     2.052126815557   119.78897268   180.27050074
 H     37  36  35     2.050502464767   118.43952609     0.75097016
 H     38  37  36     2.049283790036   120.70765654   179.82591012
 H     39  38  37     2.048879833671   119.26145550   178.17490226
 H     40  39  38     2.041533798823   119.77964929   179.12486730

---------------------
BASIS SET INFORMATION
---------------------
There are 5 groups of distinct atoms

 Group   1 Type C   : 11s6p1d contracted to 5s3p1d pattern {62111/411/1}
 Group   2 Type O   : 11s6p2d contracted to 5s3p2d pattern {62111/411/11}
 Group   3 Type Ni  : 17s11p6d contracted to 6s4p3d pattern {842111/6311/411}
 Group   4 Type N   : 11s6p2d contracted to 5s3p2d pattern {62111/411/11}
 Group   5 Type H   : 4s1p contracted to 2s1p pattern {31/1}

Atom   0C    basis set group =>   1
Atom   1C    basis set group =>   1
Atom   2C    basis set group =>   1
Atom   3C    basis set group =>   1
Atom   4C    basis set group =>   1
Atom   5C    basis set group =>   1
Atom   6C    basis set group =>   1
Atom   7C    basis set group =>   1
Atom   8C    basis set group =>   1
Atom   9C    basis set group =>   1
Atom  10C    basis set group =>   1
Atom  11O    basis set group =>   2
Atom  12Ni   basis set group =>   3
Atom  13O    basis set group =>   2
Atom  14C    basis set group =>   1
Atom  15O    basis set group =>   2
Atom  16C    basis set group =>   1
Atom  17C    basis set group =>   1
Atom  18C    basis set group =>   1
Atom  19C    basis set group =>   1
Atom  20C    basis set group =>   1
Atom  21C    basis set group =>   1
Atom  22C    basis set group =>   1
Atom  23N    basis set group =>   4
Atom  24C    basis set group =>   1
Atom  25C    basis set group =>   1
Atom  26C    basis set group =>   1
Atom  27C    basis set group =>   1
Atom  28C    basis set group =>   1
Atom  29C    basis set group =>   1
Atom  30O    basis set group =>   2
Atom  31C    basis set group =>   1
Atom  32C    basis set group =>   1
Atom  33C    basis set group =>   1
Atom  34C    basis set group =>   1
Atom  35C    basis set group =>   1
Atom  36C    basis set group =>   1
Atom  37C    basis set group =>   1
Atom  38C    basis set group =>   1
Atom  39C    basis set group =>   1
Atom  40C    basis set group =>   1
Atom  41C    basis set group =>   1
Atom  42H    basis set group =>   5
Atom  43H    basis set group =>   5
Atom  44H    basis set group =>   5
Atom  45H    basis set group =>   5
Atom  46H    basis set group =>   5
Atom  47H    basis set group =>   5
Atom  48H    basis set group =>   5
Atom  49H    basis set group =>   5
Atom  50H    basis set group =>   5
Atom  51H    basis set group =>   5
Atom  52H    basis set group =>   5
Atom  53H    basis set group =>   5
Atom  54H    basis set group =>   5
Atom  55H    basis set group =>   5
Atom  56H    basis set group =>   5
Atom  57H    basis set group =>   5
Atom  58H    basis set group =>   5
Atom  59H    basis set group =>   5
Atom  60H    basis set group =>   5
Atom  61H    basis set group =>   5
Atom  62H    basis set group =>   5
Atom  63H    basis set group =>   5
Atom  64H    basis set group =>   5
Atom  65H    basis set group =>   5
Atom  66H    basis set group =>   5
Atom  67H    basis set group =>   5
Atom  68H    basis set group =>   5
---------------------------------
AUXILIARY/J BASIS SET INFORMATION
---------------------------------
There are 5 groups of distinct atoms

 Group   1 Type C   : 8s3p3d contracted to 6s3p3d pattern {311111/111/111}
 Group   2 Type O   : 8s3p3d contracted to 6s3p3d pattern {311111/111/111}
 Group   3 Type Ni  : 19s5p5d3f3g contracted to 8s5p5d2f3g pattern {121111111/11111/11111/21/111}
 Group   4 Type N   : 8s3p3d contracted to 6s3p3d pattern {311111/111/111}
 Group   5 Type H   : 5s2p1d contracted to 3s1p1d pattern {311/2/1}

Atom   0C    basis set group =>   1
Atom   1C    basis set group =>   1
Atom   2C    basis set group =>   1
Atom   3C    basis set group =>   1
Atom   4C    basis set group =>   1
Atom   5C    basis set group =>   1
Atom   6C    basis set group =>   1
Atom   7C    basis set group =>   1
Atom   8C    basis set group =>   1
Atom   9C    basis set group =>   1
Atom  10C    basis set group =>   1
Atom  11O    basis set group =>   2
Atom  12Ni   basis set group =>   3
Atom  13O    basis set group =>   2
Atom  14C    basis set group =>   1
Atom  15O    basis set group =>   2
Atom  16C    basis set group =>   1
Atom  17C    basis set group =>   1
Atom  18C    basis set group =>   1
Atom  19C    basis set group =>   1
Atom  20C    basis set group =>   1
Atom  21C    basis set group =>   1
Atom  22C    basis set group =>   1
Atom  23N    basis set group =>   4
Atom  24C    basis set group =>   1
Atom  25C    basis set group =>   1
Atom  26C    basis set group =>   1
Atom  27C    basis set group =>   1
Atom  28C    basis set group =>   1
Atom  29C    basis set group =>   1
Atom  30O    basis set group =>   2
Atom  31C    basis set group =>   1
Atom  32C    basis set group =>   1
Atom  33C    basis set group =>   1
Atom  34C    basis set group =>   1
Atom  35C    basis set group =>   1
Atom  36C    basis set group =>   1
Atom  37C    basis set group =>   1
Atom  38C    basis set group =>   1
Atom  39C    basis set group =>   1
Atom  40C    basis set group =>   1
Atom  41C    basis set group =>   1
Atom  42H    basis set group =>   5
Atom  43H    basis set group =>   5
Atom  44H    basis set group =>   5
Atom  45H    basis set group =>   5
Atom  46H    basis set group =>   5
Atom  47H    basis set group =>   5
Atom  48H    basis set group =>   5
Atom  49H    basis set group =>   5
Atom  50H    basis set group =>   5
Atom  51H    basis set group =>   5
Atom  52H    basis set group =>   5
Atom  53H    basis set group =>   5
Atom  54H    basis set group =>   5
Atom  55H    basis set group =>   5
Atom  56H    basis set group =>   5
Atom  57H    basis set group =>   5
Atom  58H    basis set group =>   5
Atom  59H    basis set group =>   5
Atom  60H    basis set group =>   5
Atom  61H    basis set group =>   5
Atom  62H    basis set group =>   5
Atom  63H    basis set group =>   5
Atom  64H    basis set group =>   5
Atom  65H    basis set group =>   5
Atom  66H    basis set group =>   5
Atom  67H    basis set group =>   5
Atom  68H    basis set group =>   5
[1769329334.566462] [node067:66851:0]     ucp_context.c:1234 UCX  WARN  transport 'ib' is not available, please use one or more of: mm, posix, self, shm, sm, sysv, tcp
[1769329334.568470] [node067:66849:0]     ucp_context.c:1234 UCX  WARN  transport 'ib' is not available, please use one or more of: mm, posix, self, shm, sm, sysv, tcp
[1769329334.568490] [node067:66845:0]     ucp_context.c:1234 UCX  WARN  transport 'ib' is not available, please use one or more of: mm, posix, self, shm, sm, sysv, tcp
[1769329334.568491] [node067:66847:0]     ucp_context.c:1234 UCX  WARN  transport 'ib' is not available, please use one or more of: mm, posix, self, shm, sm, sysv, tcp
[1769329334.568531] [node067:66846:0]     ucp_context.c:1234 UCX  WARN  transport 'ib' is not available, please use one or more of: mm, posix, self, shm, sm, sysv, tcp
[1769329334.568532] [node067:66848:0]     ucp_context.c:1234 UCX  WARN  transport 'ib' is not available, please use one or more of: mm, posix, self, shm, sm, sysv, tcp
[1769329334.568532] [node067:66850:0]     ucp_context.c:1234 UCX  WARN  transport 'ib' is not available, please use one or more of: mm, posix, self, shm, sm, sysv, tcp
[1769329334.568549] [node067:66852:0]     ucp_context.c:1234 UCX  WARN  transport 'ib' is not available, please use one or more of: mm, posix, self, shm, sm, sysv, tcp


           ************************************************************
           *        Program running with 8 parallel MPI-processes     *
           *              working on a common directory               *
           ************************************************************
------------------------------------------------------------------------------
                             ORCA STARTUP CALCULATIONS
                           -- RI-GTO INTEGRALS CHOSEN --
------------------------------------------------------------------------------
------------------------------------------------------------------------------
                   ___                                                        
                  /   \      - P O W E R E D   B Y -                         
                 /     \                                                     
                 |  |  |   _    _      __       _____    __    __             
                 |  |  |  | |  | |    /  \     |  _  \  |  |  /  |          
                  \  \/   | |  | |   /    \    | | | |  |  | /  /          
                 / \  \   | |__| |  /  /\  \   | |_| |  |  |/  /          
                |  |  |   |  __  | /  /__\  \  |    /   |      \           
                |  |  |   | |  | | |   __   |  |    \   |  |\   \          
                \     /   | |  | | |  |  |  |  | |\  \  |  | \   \       
                 \___/    |_|  |_| |__|  |__|  |_| \__\ |__|  \__/        
                                                                              
                      - O R C A' S   B I G   F R I E N D -                    
                                      &                                       
                       - I N T E G R A L  F E E D E R -                       
                                                                              
 v1 FN, 2020, v2 2021, v3 2022-2024                                           
------------------------------------------------------------------------------


----------------------
SHARK INTEGRAL PACKAGE
----------------------

Number of atoms                             ...     69
Number of basis functions                   ...    972
Number of shells                            ...    468
Maximum angular momentum                    ...      2
Integral batch strategy                     ... SHARK/LIBINT Hybrid
RI-J (if used) integral strategy            ... SPLIT-RIJ (Revised 2003 algorithm where possible)
Printlevel                                  ...      1
Contraction scheme used                     ... SEGMENTED contraction
Prescreening option                         ... SCHWARTZ
   Thresh                                   ... 2.500e-11
   Tcut                                     ... 2.500e-12
   Tpresel                                  ... 2.500e-12 
Coulomb Range Separation                    ... NOT USED
Exchange Range Separation                   ... NOT USED
Multipole approximations                    ... NOT USED
[...]
freq.     176.52  E(vib)   ...       0.38 
freq.     180.39  E(vib)   ...       0.37 
freq.     184.38  E(vib)   ...       0.37 
freq.     191.54  E(vib)   ...       0.36 
freq.     199.02  E(vib)   ...       0.35 
freq.     204.84  E(vib)   ...       0.35 
freq.     226.80  E(vib)   ...       0.33 
freq.     234.55  E(vib)   ...       0.32 
freq.     238.98  E(vib)   ...       0.32 
freq.     255.15  E(vib)   ...       0.30 
freq.     286.11  E(vib)   ...       0.27 
freq.     289.37  E(vib)   ...       0.27 
freq.     293.38  E(vib)   ...       0.27 
freq.     307.60  E(vib)   ...       0.26 
freq.     314.61  E(vib)   ...       0.25 
freq.     322.43  E(vib)   ...       0.25 
freq.     332.72  E(vib)   ...       0.24 
freq.     353.18  E(vib)   ...       0.22 
freq.     387.09  E(vib)   ...       0.20 
freq.     393.63  E(vib)   ...       0.20 
freq.     407.80  E(vib)   ...       0.19 
freq.     410.67  E(vib)   ...       0.19 
freq.     416.93  E(vib)   ...       0.18 
freq.     430.94  E(vib)   ...       0.18 
freq.     434.78  E(vib)   ...       0.17 
freq.     443.81  E(vib)   ...       0.17 
freq.     444.79  E(vib)   ...       0.17 
freq.     459.49  E(vib)   ...       0.16 
freq.     466.66  E(vib)   ...       0.16 
freq.     468.11  E(vib)   ...       0.16 
freq.     492.95  E(vib)   ...       0.14 
freq.     505.45  E(vib)   ...       0.14 
freq.     513.82  E(vib)   ...       0.13 
freq.     514.56  E(vib)   ...       0.13 
freq.     520.28  E(vib)   ...       0.13 
freq.     544.37  E(vib)   ...       0.12 
freq.     568.75  E(vib)   ...       0.11 
freq.     573.27  E(vib)   ...       0.11 
freq.     588.10  E(vib)   ...       0.10 
freq.     622.74  E(vib)   ...       0.09 
freq.     625.79  E(vib)   ...       0.09 
freq.     635.16  E(vib)   ...       0.09 
freq.     636.34  E(vib)   ...       0.09 
freq.     639.47  E(vib)   ...       0.09 
freq.     655.24  E(vib)   ...       0.08 
freq.     661.21  E(vib)   ...       0.08 
freq.     676.86  E(vib)   ...       0.08 
freq.     693.31  E(vib)   ...       0.07 
freq.     697.98  E(vib)   ...       0.07 
freq.     707.12  E(vib)   ...       0.07 
freq.     714.85  E(vib)   ...       0.07 
freq.     716.13  E(vib)   ...       0.07 
freq.     721.09  E(vib)   ...       0.07 
freq.     743.63  E(vib)   ...       0.06 
freq.     746.37  E(vib)   ...       0.06 
freq.     754.40  E(vib)   ...       0.06 
freq.     756.74  E(vib)   ...       0.06 
freq.     769.76  E(vib)   ...       0.05 
freq.     772.81  E(vib)   ...       0.05 
freq.     779.15  E(vib)   ...       0.05 
freq.     795.03  E(vib)   ...       0.05 
freq.     797.79  E(vib)   ...       0.05 
freq.     825.01  E(vib)   ...       0.04 
freq.     846.49  E(vib)   ...       0.04 
freq.     859.60  E(vib)   ...       0.04 
freq.     859.82  E(vib)   ...       0.04 
freq.     860.58  E(vib)   ...       0.04 
freq.     879.39  E(vib)   ...       0.04 
freq.     881.26  E(vib)   ...       0.04 
freq.     893.67  E(vib)   ...       0.03 
freq.     894.04  E(vib)   ...       0.03 
freq.     905.35  E(vib)   ...       0.03 
freq.     915.97  E(vib)   ...       0.03 
freq.     918.78  E(vib)   ...       0.03 
freq.     921.66  E(vib)   ...       0.03 
freq.     952.52  E(vib)   ...       0.03 
freq.     958.78  E(vib)   ...       0.03 
freq.     960.51  E(vib)   ...       0.03 
freq.     972.56  E(vib)   ...       0.03 
freq.     974.32  E(vib)   ...       0.03 
freq.     983.47  E(vib)   ...       0.02 
freq.     983.50  E(vib)   ...       0.02 
freq.     986.15  E(vib)   ...       0.02 
freq.     988.68  E(vib)   ...       0.02 
freq.     991.18  E(vib)   ...       0.02 
freq.    1012.21  E(vib)   ...       0.02 
freq.    1014.47  E(vib)   ...       0.02 
freq.    1025.24  E(vib)   ...       0.02 
freq.    1026.62  E(vib)   ...       0.02 
freq.    1046.59  E(vib)   ...       0.02 
freq.    1051.17  E(vib)   ...       0.02 
freq.    1051.31  E(vib)   ...       0.02 
freq.    1054.94  E(vib)   ...       0.02 
freq.    1056.57  E(vib)   ...       0.02 
freq.    1060.88  E(vib)   ...       0.02 
freq.    1073.54  E(vib)   ...       0.02 
freq.    1083.72  E(vib)   ...       0.02 
freq.    1113.97  E(vib)   ...       0.01 
freq.    1132.44  E(vib)   ...       0.01 
freq.    1134.71  E(vib)   ...       0.01 
freq.    1137.99  E(vib)   ...       0.01 
freq.    1182.67  E(vib)   ...       0.01 
freq.    1184.24  E(vib)   ...       0.01 
freq.    1185.42  E(vib)   ...       0.01 
freq.    1187.81  E(vib)   ...       0.01 
freq.    1188.53  E(vib)   ...       0.01 
freq.    1191.11  E(vib)   ...       0.01 
freq.    1207.48  E(vib)   ...       0.01 
freq.    1210.88  E(vib)   ...       0.01 
freq.    1212.53  E(vib)   ...       0.01 
freq.    1226.33  E(vib)   ...       0.01 
freq.    1243.88  E(vib)   ...       0.01 
freq.    1247.28  E(vib)   ...       0.01 
freq.    1257.91  E(vib)   ...       0.01 
freq.    1282.29  E(vib)   ...       0.01 
freq.    1291.51  E(vib)   ...       0.01 
freq.    1299.99  E(vib)   ...       0.01 
freq.    1305.98  E(vib)   ...       0.01 
freq.    1323.24  E(vib)   ...       0.01 
freq.    1330.37  E(vib)   ...       0.01 
freq.    1341.61  E(vib)   ...       0.01 
freq.    1343.01  E(vib)   ...       0.01 
freq.    1360.02  E(vib)   ...       0.01 
freq.    1362.32  E(vib)   ...       0.01 
freq.    1368.29  E(vib)   ...       0.01 
freq.    1372.05  E(vib)   ...       0.01 
freq.    1378.05  E(vib)   ...       0.01 
freq.    1383.75  E(vib)   ...       0.00 
freq.    1392.28  E(vib)   ...       0.00 
freq.    1397.19  E(vib)   ...       0.00 
freq.    1405.63  E(vib)   ...       0.00 
freq.    1413.76  E(vib)   ...       0.00 
freq.    1426.49  E(vib)   ...       0.00 
freq.    1447.57  E(vib)   ...       0.00 
freq.    1462.08  E(vib)   ...       0.00 
freq.    1463.35  E(vib)   ...       0.00 
freq.    1467.10  E(vib)   ...       0.00 
freq.    1469.26  E(vib)   ...       0.00 
freq.    1480.91  E(vib)   ...       0.00 
freq.    1481.90  E(vib)   ...       0.00 
freq.    1484.03  E(vib)   ...       0.00 
freq.    1489.08  E(vib)   ...       0.00 
freq.    1503.97  E(vib)   ...       0.00 
freq.    1519.96  E(vib)   ...       0.00 
freq.    1521.59  E(vib)   ...       0.00 
freq.    1526.61  E(vib)   ...       0.00 
freq.    1568.12  E(vib)   ...       0.00 
freq.    1575.13  E(vib)   ...       0.00 
freq.    1585.51  E(vib)   ...       0.00 
freq.    1619.08  E(vib)   ...       0.00 
freq.    1622.31  E(vib)   ...       0.00 
freq.    1623.45  E(vib)   ...       0.00 
freq.    1633.45  E(vib)   ...       0.00 
freq.    1634.67  E(vib)   ...       0.00 
freq.    1639.62  E(vib)   ...       0.00 
freq.    1645.63  E(vib)   ...       0.00 
freq.    1745.14  E(vib)   ...       0.00 
freq.    3019.20  E(vib)   ...       0.00 
freq.    3019.32  E(vib)   ...       0.00 
freq.    3035.78  E(vib)   ...       0.00 
freq.    3089.10  E(vib)   ...       0.00 
freq.    3091.71  E(vib)   ...       0.00 
freq.    3115.96  E(vib)   ...       0.00 
freq.    3119.33  E(vib)   ...       0.00 
freq.    3143.16  E(vib)   ...       0.00 
freq.    3148.89  E(vib)   ...       0.00 
freq.    3152.61  E(vib)   ...       0.00 
freq.    3157.90  E(vib)   ...       0.00 
freq.    3158.57  E(vib)   ...       0.00 
freq.    3159.72  E(vib)   ...       0.00 
freq.    3166.94  E(vib)   ...       0.00 
freq.    3168.92  E(vib)   ...       0.00 
freq.    3171.23  E(vib)   ...       0.00 
freq.    3172.50  E(vib)   ...       0.00 
freq.    3175.76  E(vib)   ...       0.00 
freq.    3176.41  E(vib)   ...       0.00 
freq.    3184.07  E(vib)   ...       0.00 
freq.    3185.12  E(vib)   ...       0.00 
freq.    3186.92  E(vib)   ...       0.00 
freq.    3189.45  E(vib)   ...       0.00 
freq.    3193.57  E(vib)   ...       0.00 
freq.    3197.30  E(vib)   ...       0.00 
freq.    3197.41  E(vib)   ...       0.00 
freq.    3217.43  E(vib)   ...       0.00 

------------
INNER ENERGY
------------

The inner energy is: U= E(el) + E(ZPE) + E(vib) + E(rot) + E(trans)
    E(el)   - is the total energy from the electronic structure calculation
              = E(kin-el) + E(nuc-el) + E(el-el) + E(nuc-nuc)
    E(ZPE)  - the the zero temperature vibrational energy from the frequency calculation
    E(vib)  - the the finite temperature correction to E(ZPE) due to population
              of excited vibrational states
    E(rot)  - is the rotational thermal energy
    E(trans)- is the translational thermal energy

Summary of contributions to the inner energy U:
Electronic energy                ...  -3251.82164794 Eh
Zero point energy                ...      0.53350795 Eh     334.78 kcal/mol
Thermal vibrational correction   ...      0.03190242 Eh      20.02 kcal/mol
Thermal rotational correction    ...      0.00141627 Eh       0.89 kcal/mol
Thermal translational correction ...      0.00141627 Eh       0.89 kcal/mol
-----------------------------------------------------------------------
Total thermal energy                  -3251.25340502 Eh


Summary of corrections to the electronic energy:
(perhaps to be used in another calculation)
Total thermal correction                  0.03473497 Eh      21.80 kcal/mol
Non-thermal (ZPE) correction              0.53350795 Eh     334.78 kcal/mol
-----------------------------------------------------------------------
Total correction                          0.56824292 Eh     356.58 kcal/mol


--------
ENTHALPY
--------

The enthalpy is H = U + kB*T
                kB is Boltzmann's constant
Total thermal energy              ...  -3251.25340502 Eh 
Thermal Enthalpy correction       ...      0.00094421 Eh       0.59 kcal/mol
-----------------------------------------------------------------------
Total Enthalpy                    ...  -3251.25246081 Eh


Note: Only C1 symmetry has been detected, increase convergence thresholds 
      if your molecule has a higher symmetry. Symmetry factor of 1.0 is   
      used for the rotational entropy correction. 
 

Note: Rotational entropy computed according to Herzberg 
Infrared and Raman Spectra, Chapter V,1, Van Nostrand Reinhold, 1945 
Point Group:  C1, Symmetry Number:   1  
Rotational constants in cm-1:     0.004137     0.002137     0.001891 

Vibrational entropy computed according to the QRRHO of S. Grimme
Chem.Eur.J. 2012 18 9955 using a reference frequency of 100.0 cm-1


-------
ENTROPY
-------

The entropy contributions are T*S = T*(S(el)+S(vib)+S(rot)+S(trans))
     S(el)   - electronic entropy
     S(vib)  - vibrational entropy
     S(rot)  - rotational entropy
     S(trans)- translational entropy
The entropies will be listed as multiplied by the temperature to get
units of energy

Electronic entropy                ...      0.00000000 Eh      0.00 kcal/mol
Vibrational entropy               ...      0.05644299 Eh     35.42 kcal/mol
Rotational entropy                ...      0.01796441 Eh     11.27 kcal/mol
Translational entropy             ...      0.02140013 Eh     13.43 kcal/mol
-----------------------------------------------------------------------
Final entropy term                ...      0.09580754 Eh     60.12 kcal/mol

In case the symmetry of your molecule has not been determined correctly
or in case you have a reason to use a different symmetry number we print 
out the resulting rotational entropy values for sn=1,12:

 non-linear molecules -----------------------------------
|  sn= 1 | S(rot)=       0.01796441 Eh     11.27 kcal/mol|
|  sn= 2 | S(rot)=       0.01730995 Eh     10.86 kcal/mol|
|  sn= 3 | S(rot)=       0.01692712 Eh     10.62 kcal/mol|
|  sn= 4 | S(rot)=       0.01665550 Eh     10.45 kcal/mol|
|  sn= 5 | S(rot)=       0.01644481 Eh     10.32 kcal/mol|
|  sn= 6 | S(rot)=       0.01627267 Eh     10.21 kcal/mol|
|  sn= 7 | S(rot)=       0.01612712 Eh     10.12 kcal/mol|
|  sn= 8 | S(rot)=       0.01600104 Eh     10.04 kcal/mol|
|  sn= 9 | S(rot)=       0.01588983 Eh      9.97 kcal/mol|
|  sn=10 | S(rot)=       0.01579035 Eh      9.91 kcal/mol|
|  sn=11 | S(rot)=       0.01570036 Eh      9.85 kcal/mol|
|  sn=12 | S(rot)=       0.01561821 Eh      9.80 kcal/mol|
 linear molecules ---------------------------------------
|  Dinfh | S(rot)=       0.01124627 Eh      7.06 kcal/mol|
|  Cinfv | S(rot)=       0.01190072 Eh      7.47 kcal/mol|
 --------------------------------------------------------


-------------------
GIBBS FREE ENERGY
-------------------

The Gibbs free energy is G = H - T*S

Total enthalpy                    ...  -3251.25246081 Eh 
Total entropy correction          ...     -0.09580754 Eh    -60.12 kcal/mol
-----------------------------------------------------------------------
Final Gibbs free energy         ...  -3251.34826835 Eh

For completeness - the Gibbs free energy minus the electronic energy
G-E(el)                           ...      0.47337959 Eh    297.05 kcal/mol


Maximum memory used throughout the entire PROP-calculation: 176.4 MB
[1769333889.640564] [node067:74902:0]     ucp_context.c:1234 UCX  WARN  transport 'ib' is not available, please use one or more of: mm, posix, self, shm, sm, sysv, tcp
[1769333889.658701] [node067:74903:0]     ucp_context.c:1234 UCX  WARN  transport 'ib' is not available, please use one or more of: mm, posix, self, shm, sm, sysv, tcp
[1769333889.680136] [node067:74906:0]     ucp_context.c:1234 UCX  WARN  transport 'ib' is not available, please use one or more of: mm, posix, self, shm, sm, sysv, tcp
[1769333889.716432] [node067:74909:0]     ucp_context.c:1234 UCX  WARN  transport 'ib' is not available, please use one or more of: mm, posix, self, shm, sm, sysv, tcp
[1769333889.733697] [node067:74912:0]     ucp_context.c:1234 UCX  WARN  transport 'ib' is not available, please use one or more of: mm, posix, self, shm, sm, sysv, tcp
[1769333889.765535] [node067:74915:0]     ucp_context.c:1234 UCX  WARN  transport 'ib' is not available, please use one or more of: mm, posix, self, shm, sm, sysv, tcp
[1769333889.788461] [node067:74918:0]     ucp_context.c:1234 UCX  WARN  transport 'ib' is not available, please use one or more of: mm, posix, self, shm, sm, sysv, tcp
[1769333889.821249] [node067:74921:0]     ucp_context.c:1234 UCX  WARN  transport 'ib' is not available, please use one or more of: mm, posix, self, shm, sm, sysv, tcp

--------------------------------
SUGGESTED CITATIONS FOR THIS RUN
--------------------------------

Below you find a list of papers that are relevant to this ORCA run
We neither can nor want to force you to cite these papers, but we appreciate if you do
You receive ORCA, which is the product of decades of hard work by many enthusiastic individuals, for free
The only thing we kindly ask in return is that you cite our papers,
We deeply appreciate it, if you show your appreciation for ORCA by not just citing the generic ORCA reference.

Please note that relegating all ORCA citations to the supporting information does *not* help us.
SI sections are not indexed - citations you put there will not count into any citation statistics
But we need these citations in order to attract the funding resources that allow us to do what we are doing

Therefore, if you are a happy ORCA user, please consider citing a few of the papers listed below in the main body of your paper

In addition to the list printed below, the program has created the file testpairs_id_0struct_1.bibtex that contains the list in bibtex format
You can import this file easily into all common literature databanks and citation aid programs


List of essential papers. We consider these as the minimum necessary citations

  1. Grimme, S.; Hansen, A.; Ehlert, S.; Mewes, J.
     r2SCAN-3c: A 'Swiss army knife' composite electronic-structure method
     J. Chem. Phys. 2021 154 , 064103
     doi.org/10.1063/5.0040021
  2. Neese, F.
     Software update: the ORCA program system, version 6.0
     WIRES Comput. Molec. Sci. 2025 15(1), e70019
     doi.org/10.1002/wcms.7019

List of papers to cite with high priority. The work reported in these papers was absolutely
necessary for this run to complete.
Our perspective: the developers of density functionals and basis sets usually get cited in chemistry papers
Good! But without the algorithms to do something with them, the functionals or basis sets would not do anything.
Hence, in our opinion, the algorithm design and method developments papers are equally worthy of getting cited

  1. Neese, F.
     An improvement of the resolution of the identity approximation for the formation of the Coulomb matrix
     J. Comp. Chem. 2003 24(14), 1740-1747
     doi.org/10.1002/jcc.10318
  2. Bykov, D.; Petrenko, T.; Izsak, R.; Kossmann, S.; Becker, U.; Valeev, E.; Neese, F.
     Efficient implementation of the analytic second derivatives of Hartree-Fock and hybrid DFT energies: a detailed analysis of different approximations
     Molec. Phys. 2015 113 , 1961-1977
     doi.org/10.1080/00268976.2015.1025114
  3. Caldeweyher, E.; Bannwarth, C.; Grimme, S.
     Extension of the D3 dispersion coefficient model
     J. Chem. Phys. 2017 147 , 034112
     doi.org/10.1063/1.4993215
  4. Lehtola, S.; Steigemann, C.; Oliveira, M.; Marques, M.
     Recent developments in Libxc - A comprehensive library of functionals for density functional theory
     Software X 2018 7 , 
     doi.org/10.1016/j.softx.2017.11.002
  5. Caldeweyher, E.; Ehlert, S.; Hansen, A.; Neugebauer, H.; Spicher, S.; Bannwarth, C.; Grimme, S.
     A generally applicable atomic-charge dependent London dispersion correction
     J. Chem. Phys. 2019 150 , 154122
     doi.org/10.1063/1.5090222
  6. Caldeweyher, E.; Mewes, J.; Ehlert, S.; Grimme, S.
     Extension and evaluation of the D4 London-dispersion model for periodic systems
     Phys. Chem. Chem. Phys. 2020 22(16), 8499-8512
     doi.org/10.1039/D0CP00502A
  7. Neese, F.
     The SHARK Integral Generation and Digestion System
     J. Comp. Chem. 2022 44(3), 381
     doi.org/10.1002/jcc.26942
  8. Wittmann, L.; Gordiy, I.; Friede, M.; Helmich-Paris, B.; Grimme, S.; Hansen, A.; Bursch, M.
     Extension of the D3 and D4 London Dispersion Corrections to the full Actinides Series
     Phys. Chem. Chem. Phys. 2024 26(32), 21379-21394
     doi.org/10.1039/D4CP01514B

List of suggested additional citations. These are papers that are important in the 'surrounding' of 
of this run, or papers that preceded the highly important papers. If you like your results we are grateful for a citation.

  1. Neese, F.
     The ORCA program system
     WIRES Comput. Molec. Sci. 2012 2(1), 73-78
     doi.org/10.1002/wcms.81
  2. Neese, F.
     Software update: the ORCA program system, version 4.0
     WIRES Comput. Molec. Sci. 2018 8(1), 1-6
     doi.org/10.1002/wcms.1327
  3. Neese, F.; Wennmohs, F.; Becker, U.; Riplinger, C.
     The ORCA quantum chemistry program package
     J. Chem. Phys. 2020 152(22), 224108
     doi.org/10.1063/5.0004608
  4. Neese, F.
     Software update: The ORCA program system—Version 5.0
     WIRES Comput. Molec. Sci. 2022 12(1), e1606
     doi.org/10.1002/wcms.1606

List of optional additional citations

  1. Neese, F.
     Approximate second-order SCF convergence for spin unrestricted wavefunctions
     Chem. Phys. Lett. 2000 325(1-3), 93-98
     doi.org/10.1016/s0009-2614(00)00662-x

Timings for individual modules:

Sum of individual times          ...     4519.693 sec (=  75.328 min)
Startup calculation              ...      101.912 sec (=   1.699 min)   2.3 %
SCF iterations                   ...     1109.720 sec (=  18.495 min)  24.6 %
Property integrals               ...      900.483 sec (=  15.008 min)  19.9 %
SCF Response                     ...     1756.961 sec (=  29.283 min)  38.9 %
Property calculations            ...      301.583 sec (=   5.026 min)   6.7 %
SCF Gradient evaluation          ...      347.700 sec (=   5.795 min)   7.7 %
Geometry relaxation              ...        1.334 sec (=   0.022 min)   0.0 %
                             ****ORCA TERMINATED NORMALLY****
TOTAL RUN TIME: 0 days 1 hours 15 minutes 57 seconds 430 msec
