
                                 *****************
                                 * O   R   C   A *
                                 *****************

                                            #,                                       
                                            ###                                      
                                            ####                                     
                                            #####                                    
                                            ######                                   
                                           ########,                                 
                                     ,,################,,,,,                         
                               ,,#################################,,                 
                          ,,##########################################,,             
                       ,#########################################, ''#####,          
                    ,#############################################,,   '####,        
                  ,##################################################,,,,####,       
                ,###########''''           ''''###############################       
              ,#####''   ,,,,##########,,,,          '''####'''          '####       
            ,##' ,,,,###########################,,,                        '##       
           ' ,,###''''                  '''############,,,                           
         ,,##''                                '''############,,,,        ,,,,,,###''
      ,#''                                            '''#######################'''  
     '                                                          ''''####''''         
             ,#######,   #######,   ,#######,      ##                                
            ,#'     '#,  ##    ##  ,#'     '#,    #''#        ,####,    ,#,          
            ##       ##  ##   ,#'  ##            #'  '#       #'       ,# #          
            ##       ##  #######   ##           ,######,      #####,      #          
            '#,     ,#'  ##    ##  '#,     ,#' ,#      #,     #,   #      #          
             '#######'   ##     ##  '#######'  #'      '#     '####' #    #          



                #########################################################
                #                        -***-                          #
                #          Department of theory and spectroscopy        #
                #                                                       #
                #                      Frank Neese                      #
                #                                                       #
                #     Directorship, Architecture, Infrastructure        #
                #                    SHARK, DRIVERS                     #
                #        Core code/Algorithms in most modules           #
                #                                                       #
                #        Max Planck Institute fuer Kohlenforschung      #
                #                Kaiser Wilhelm Platz 1                 #
                #                 D-45470 Muelheim/Ruhr                 #
                #                      Germany                          #
                #                                                       #
                #                  All rights reserved                  #
                #                        -***-                          #
                #########################################################


                         Program Version 6.1.0  -  RELEASE   -
                                (GIT: $679e74b$)
                          ($2025-06-10 18:02:51 +0200$)


 With contributions from (in alphabetic order):
[Max-Planck-Institut fuer Kohlenforschung]                               
  Daniel Aravena         : Magnetic Suceptibility                        
  Michael Atanasov       : Ab Initio Ligand Field Theory (pilot matlab implementation)
  Alexander A. Auer      : GIAO ZORA, VPT2 properties, NMR spectrum      
  Ute Becker             : All parallelization in ORCA, NUMFREQ, NUMCALC 
  Giovanni Bistoni       : ED, misc. LED, open-shell LED, HFLD           
  Dmytro Bykov           : pre 5.0 version of the SCF Hessian            
  Marcos Casanova-Páez   : Triplet and SCS-CIS(D). UHF-(DLPNO)-IP/EA/STEOM-CCSD. UHF-CVS-IP/STEOM-CCSD   
  Vijay G. Chilkuri      : MRCI spin determinant printing, contributions to CSF-ICE 
  Pauline Colinet        : FMM embedding                                 
  Dipayan Datta          : RHF DLPNO-CCSD density                        
  Achintya Kumar Dutta   : EOM-CC, STEOM-CC                              
  Nicolas Foglia         : Exact transition moments, OPA infrastructure, MCD improvements    
  Dmitry Ganyushin       : Spin-Orbit,Spin-Spin,Magnetic field MRCI      
  Miquel Garcia-Rates    : C-PCM and meta-GGA Hessian, CCSD/C-PCM, Gaussian charge scheme 
  Tiago L. C. Gouveia    : GS-ROHF, GS-ROCIS                             
  Yang Guo               : DLPNO-NEVPT2, F12-NEVPT2, CIM, IAO-localization        
  Andreas Hansen         : Spin unrestricted coupled pair/coupled cluster methods 
  Ingolf Harden          : AUTO-CI MPn and infrastructure                
  Benjamin Helmich-Paris : MC-RPA, TRAH-(SCF,CASSCF), AVAS, COSX integrals, SCF dyn. polar., MC-PDFT, srDFT 
  Lee Huntington         : MR-EOM, pCC                                   
  Robert Izsak           : Overlap fitted RIJCOSX, COSX-SCS-MP3, EOM     
  Riya Kayal             : Wick's Theorem for AUTO-CI, AUTO-CI UHF-CCSDT 
  Emily Kempfer          : AUTO-CI RHF CISDT and CCSDT, approximate NEVPT4
  Christian Kollmar      : KDIIS, OOCD, Brueckner-CCSD(T), CCSD density, CASPT2, CASPT2-K, improved NEVPT2 
  Axel Koslowski         : Symmetry handling                             
  Simone Kossmann        : meta-GGA functionals, TD-DFT gradient, OOMP2, (MP2 Hessian; deprecated post 5.0) 
  Lucas Lang             : DCDCAS, Hyperfine gauge corrections, ICE-SOC+SSC
  Marvin Lechner         : AUTO-CI (C++ implementation), FIC-MRCC        
  Spencer Leger          : CASSCF response                               
  Dagmar Lenk            : GEPOL surface, SMD, ORCA-2-JSON               
  Dimitrios Liakos       : Extrapolation schemes; Compound Job, Property file
  Dimitrios Manganas     : Further ROCIS development; embedding schemes. LFT, Crystal Embedding 
  Dimitrios Pantazis     : SARC Basis sets                               
  Anastasios Papadopoulos: AUTO-CI, single reference methods and gradients 
  Taras Petrenko         : pre 6.0 DFT Hessian and TD-DFT gradient,  ECA, NRVS 
  Petra Pikulova         : Analytic Raman intensities                    
  Peter Pinski           : DLPNO-MP2, DLPNO-MP2 Gradient                 
  Shashank Vittal Rao    : ES-AILFT, MagRelax                            
  Christoph Reimann      : Effective Core Potentials                     
  Marius Retegan         : Local ZFS, SOC                                
  Christoph Riplinger    : Optimizer, TS searches, QM/MM, DLPNO-CCSD(T), (RO)-DLPNO pert. Triples 
  Michael Roemelt        : Original ROCIS implementation, recursive CI coupling coefficients
  Masaaki Saitow         : Open-shell DLPNO-CCSD energy and density      
  Barbara Sandhoefer     : DKH picture change effects                    
  Yorick L. A. Schmerwitz: GMF and freeze-and-release deltaSCF, NEB S-IDPP initial path                    
  Kantharuban Sivalingam : CASSCF convergence/infrastructure, NEVPT2, NEVPT3, NEVPT4(SD), FIC-MRCI and CEPA variants
  Bernardo de Souza      : ESD, SOC TD-DFT                               
  Georgi L. Stoychev     : AutoAux, RI-MP2 NMR, DLPNO-MP2 response, X2C  
  Van Anh Tran           : RI-MP2 g-tensors                              
  Willem Van den Heuvel  : Paramagnetic NMR                              
  Zikuan Wang            : NOTCH, Electric field optimization            
  Frank Wennmohs         : Technical directorship and infrastructure     
  Hang Xu                : AUTO-CI-Response properties                   
                                                                         
[FACCTs GmbH]                                                            
  Markus Bursch, Nicolas Foglia, Miquel Garcia-Rates, Ingolf Harden, Hagen Neugebauer, Anastasios Papadopoulos, 
  Christoph Riplinger, Bernardo de Souza, Georgi L. Stoychev                                                    
                                                                 
  APM, various basis sets, CI-OPT, improved COSX, DLPNO-Multilevel,           
  DOCKER, DRACO, updates on ESD, Fragmentator, GOAT, IRC, LR-CPCM, L-BFGS, MBIS, meta-GGA TD-DFT gradient, ML-optimized integration grids, 
  MM, NACMEs, nearIR, NEB, NEB-TS, NL-DFT gradient (VV10), 2- and 3-layer-ONIOM, interface openCOSMO-RS, QMMM,   
  Crystal-QMMM, RESP, rigid body optimization, SF, symmetry and pop. for TD-DFT, various functionals, SOLVATOR                                   
                                                                         
[Other institutions]                                                     
  V. Asgeirsson          : NEB                                           
  Christoph Bannwarth    : sTDA-DFT, sTD-DFT, PBEh-3c, B97-3c, D3        
  Giovanni Bistoni       : ETS/NOCV, ADLD/ADEX, COVALED                  
  Martin Brehm           : Molecular dynamics                            
  Ronald Cardenas        : ETS/NOCV                                      
  Martina Colucci        : COVALED                                       
  Sebastian Ehlert       : rSCAN, r2SCAN, r2SCAN-3c, D4, dhf basis sets  
  Marvin Friede          : D4 for Fr, Ra, Ac-Lr                          
  Lars Goerigk           : TD-DFT with DH, B97 family of functionals     
  Stefan Grimme          : VdW corrections, initial TS optimization, DFT functionals, gCP, sTDA/sTD-DF 
  Waldemar Hujo          : DFT-NL                                        
  H. Jonsson             : NEB                                           
  Holger Kruse           : gCP                                           
  Marcel Mueller         : wB97X-3c, vDZP basis set                      
  Hagen Neugebauer       : wr2SCAN, Native XTB                           
  Gianluca Regni         : ADLD/ADEX                                     
  Tobias Risthaus        : pre 6.0 range-separated hybrid DFT and stability analysis
  Lukas Wittmann         : regularized MP2, r2SCAN double-hybrids, wr2SCAN        
                                                                         
We gratefully acknowledge several colleagues who have allowed us to      
interface, adapt or use parts of their codes:                            
  Ed Valeev, F. Pavosevic, A. Kumar             : LibInt (2-el integral package), F12 methods 
  Garnet Chan, S. Sharma, J. Yang, R. Olivares  : DMRG                   
  Ulf Ekstrom                                   : XCFun DFT Library      
  Mihaly Kallay                                 : mrcc  (arbitrary order and MRCC methods)
  Frank Weinhold                                : gennbo (NPA and NBO analysis)           
  Simon Mueller                                 : openCOSMO-RS                            
  Christopher J. Cramer and Donald G. Truhlar   : smd solvation model                     
  S Lehtola, MJT Oliveira, MAL Marques          : LibXC Library                           
  Liviu Ungur et al                             : ANISO software                          


 Your calculation uses the libint2 library for the computation of 2-el integrals
 For citations please refer to: http://libint.valeyev.net

 Your ORCA version has been built with support for libXC version: 7.0.0
 For citations please refer to: https://libxc.gitlab.io

 This ORCA versions uses:
   CBLAS   interface :  Fast vector & matrix operations
   LAPACKE interface :  Fast linear algebra routines
   SCALAPACK package :  Parallel linear algebra routines
   Shared memory     :  Shared parallel matrices
   BLAS/LAPACK       :  OpenBLAS 0.3.29  USE64BITINT DYNAMIC_ARCH NO_AFFINITY Zen SINGLE_THREADED
        Core in use  :  Zen
   Copyright (c) 2011-2014, The OpenBLAS Project


  ***********************************
  * Starting time: Sun Jan 25 09:22:23 2026
  * Host name:     node067.cluster
  * Process ID:    66968
  * Working dir.:  /scratch/56608614
  ***********************************

NOTE: MaxCore=1500 MB was set to SCF,MP2,MDCI,CIPSI,MRCI,RASCI and CIS
      => If you want to overwrite this, your respective input block should be placed after the MaxCore statement
Your calculation utilizes the geometrical counterpoise correction gCP
Please cite in your paper:
H.Kruse, S. Grimme J.Chem.Phys., 136, (2012), 154101 
   

Your calculation utilizes the atom-pairwise dispersion correction
based on EEQ partial charges (D4)


================================================================================

----- Orbital basis set information -----
Your calculation utilizes the basis: def2-mTZVPP
   Stefan Grimme, Andreas Hansen, Sebastian Ehlert, and Jan-Michael Mewes 
   J. Chem. Phys. 154, 064103 (2021). DOI: 10.1063/5.0040021

----- AuxJ basis set information -----
Your calculation utilizes the basis: def2-mTZVPP/J
   Stefan Grimme, Andreas Hansen, Sebastian Ehlert, and Jan-Michael Mewes 
   J. Chem. Phys. 154, 000000 (2021). DOI: 10.1063/5.0040021

================================================================================
                                        WARNINGS
                       Please study these warnings very carefully!
================================================================================



WARNING: SCAN, rSCAN, or r2SCAN functional requested.
  ===> : libXC variant has now been activated.



WARNING: Geometry Optimization
  ===> : Switching off AutoStart
         For restart on a previous wavefunction, please use MOREAD

================================================================================
                                       INPUT FILE
================================================================================
NAME = testpairs_id_1struct_1.inp
|  1> !r2scan-3c opt freq
|  2>  
|  3>  
|  4>  %pal 
|  5>  nprocs 8 
|  6>  end 
|  7>  
|  8>  %maxcore 1500 
|  9>  
| 10>  * XYZ 0 1 
| 11> C     -1.25429000     -5.84110000      1.95681300
| 12> N     -0.14935400     -5.73682000      0.98936400
| 13> C     -0.63529500     -6.13926100     -0.35665300
| 14> C     -1.76004500     -5.29621000     -0.90330200
| 15> C     -1.50475000     -4.16628000     -1.67187700
| 16> C     -2.54286100     -3.39138700     -2.15873900
| 17> C     -3.85484000     -3.73866800     -1.88763500
| 18> C     -4.12268700     -4.87453500     -1.14260200
| 19> C     -3.08340800     -5.64879900     -0.65845400
| 20> C      0.34315400     -4.35268400      0.95958700
| 21> C      1.36307000     -4.19911700      2.07777000
| 22> N      2.23963000     -5.38292100      2.08659300
| 23> C      3.03382300     -5.32758800      3.32361200
| 24> C      3.18492100     -5.36442600      0.93012900
| 25> C      4.09316800     -4.16337500      0.84175700
| 26> C      5.34751800     -4.18954000      1.44324100
| 27> C      6.19202300     -3.09664800      1.36822300
| 28> C      5.79895800     -1.95925100      0.68316200
| 29> C      4.56379700     -1.92885500      0.06026600
| 30> C      3.72081500     -3.02418700      0.13646100
| 31> Ni      1.17911700     -6.88726100      1.67809100
| 32> O      0.21949200     -8.37846800      1.27131800
| 33> C      0.93675300     -9.43592700      1.05010000
| 34> O      0.49573900    -10.49297200      0.65433600
| 35> C      2.43651500     -9.18388800      1.34632600
| 36> C      3.17934800     -8.68960100      0.12877700
| 37> C      2.51016200     -8.22674400     -0.99893500
| 38> C      3.21606600     -7.67512000     -2.05673600
| 39> C      4.59485500     -7.57546300     -2.00046200
| 40> C      5.27088500     -8.04680600     -0.88668000
| 41> C      4.56811400     -8.59800900      0.16892800
| 42> N      2.43381700     -8.08435700      2.33509300
| 43> C      2.31254900     -8.46319700      3.65260800
| 44> C      1.37410800     -7.82293500      4.47958600
| 45> C      1.29578000     -8.09487500      5.82751700
| 46> C      2.15022100     -9.02316000      6.40194500
| 47> C      3.07239700     -9.67683300      5.60043300
| 48> C      3.15913900     -9.40867400      4.25020800
| 49> H     -0.91143200     -5.55883000      2.95341900
| 50> H     -2.08442100     -5.18097500      1.67966700
| 51> H     -1.60536100     -6.87252700      1.98931000
| 52> H      0.21791000     -6.09774900     -1.04211000
| 53> H     -0.96382100     -7.17890400     -0.27839000
| 54> H     -0.48633700     -3.89294100     -1.91178000
| 55> H     -2.32603300     -2.51779700     -2.75582000
| 56> H     -4.66498600     -3.13406100     -2.26674600
| 57> H     -5.14417700     -5.16201300     -0.94269200
| 58> H     -3.30072000     -6.54550800     -0.09684500
| 59> H     -0.47490200     -3.62879700      1.06730900
| 60> H      0.82545900     -4.16903000     -0.00159500
| 61> H      1.94572300     -3.27586500      1.96293800
| 62> H      0.85314900     -4.15107300      3.04324100
| 63> H      2.38097700     -5.40476500      4.19058500
| 64> H      3.72615000     -6.16487200      3.35089300
| 65> H      3.59132300     -4.38709800      3.38411400
| 66> H      2.61065500     -5.44637100      0.00264000
| 67> H      3.79979100     -6.26355300      1.02105400
| 68> H      5.66817200     -5.07915600      1.96471900
| 69> H      7.16159000     -3.13423600      1.84187500
| 70> H      6.45677900     -1.10534100      0.62456500
| 71> H      4.25613000     -1.05264800     -0.49116300
| 72> H      2.76926600     -2.99057600     -0.37593100
| 73> H      2.90986700    -10.08881400      1.74201400
| 74> H      1.43736100     -8.33345100     -1.07001800
| 75> H      2.68618900     -7.32759600     -2.93299800
| 76> H      5.14297200     -7.14296600     -2.82480300
| 77> H      6.34881700     -7.98398300     -0.84371700
| 78> H      5.09564000     -8.95949000      1.03998900
| 79> H      0.67088300     -7.12954300      4.00547700
| 80> H      0.55400500     -7.59517900      6.43608900
| 81> H      2.08911900     -9.24314200      7.45701800
| 82> H      3.73755900    -10.40884800      6.03692100
| 83> H      3.89707600     -9.92269500      3.65188600
| 84> 
| 85>  **                         ****END OF INPUT****
================================================================================

                       *****************************
                       * Geometry Optimization Run *
                       *****************************

Geometry optimization settings:
Update method            Update   .... BFGS
Choice of coordinates    CoordSys .... (2022) Redundant Internals
Initial Hessian          InHess   .... Almloef's Model
Max. no of cycles        MaxIter  .... 219

Convergence Tolerances:
Energy Change            TolE     ....  5.0000e-06 Eh
Max. Gradient            TolMAXG  ....  3.0000e-04 Eh/bohr
RMS Gradient             TolRMSG  ....  1.0000e-04 Eh/bohr
Max. Displacement        TolMAXD  ....  4.0000e-03 bohr
RMS Displacement         TolRMSD  ....  2.0000e-03 bohr
Strict Convergence                .... False

------------------------------------------------------------------------------
                        ORCA OPTIMIZATION COORDINATE SETUP
------------------------------------------------------------------------------

The optimization will be done in redundant internal coordinates (2022)
Making redundant internal coordinates   ...  (2022 redundants) done
Evaluating the initial hessian          ...  (Almloef) done
Evaluating the coordinates              ...  done
Calculating the B-matrix                .... done
Calculating the G-matrix                .... done
The number of degrees of freedom        ....  641

    -----------------------------------------------------------------
                    Redundant Internal Coordinates


    -----------------------------------------------------------------
         Definition                    Initial Value    Approx d2E/dq
    -----------------------------------------------------------------
      1. B(N   1,C   0)                  1.4723         0.413566   
      2. B(C   2,N   1)                  1.4866         0.392483   
      3. B(C   3,C   2)                  1.5082         0.404745   
      4. B(C   4,C   3)                  1.3902         0.624363   
      5. B(C   5,C   4)                  1.3839         0.638965   
      6. B(C   6,C   5)                  1.3840         0.638777   
      7. B(C   7,C   6)                  1.3846         0.637405   
      8. B(C   8,C   3)                  1.3912         0.621948   
      9. B(C   8,C   7)                  1.3835         0.639969   
     10. B(C   9,N   1)                  1.4694         0.417944   
     11. B(C  10,C   9)                  1.5212         0.385805   
     12. B(N  11,C  10)                  1.4730         0.412478   
     13. B(C  12,N  11)                  1.4711         0.415478   
     14. B(C  13,N  11)                  1.4938         0.382234   
     15. B(C  14,C  13)                  1.5084         0.404438   
     16. B(C  15,C  14)                  1.3914         0.621700   
     17. B(C  16,C  15)                  1.3832         0.640612   
     18. B(C  17,C  16)                  1.3847         0.637007   
     19. B(C  18,C  17)                  1.3837         0.639493   
     20. B(C  19,C  18)                  1.3843         0.638111   
     21. B(C  19,C  14)                  1.3906         0.623363   
     22. B(Ni 20,N  11)                  1.8854         0.917650   
     23. B(Ni 20,C  10)                  2.7239         0.047064   
     24. B(Ni 20,C   9)                  2.7639         0.040634   
     25. B(Ni 20,N   1)                  1.8875         0.910447   
     26. B(Ni 20,C  13)                  2.6271         0.067163   
     27. B(Ni 20,C   0)                  2.6634         0.058784   
     28. B(O  21,Ni 20)                  1.8194         1.169489   
     29. B(C  22,O  21)                  1.2968         0.788158   
     30. B(C  22,Ni 20)                  2.6361         0.064991   
     31. B(O  23,C  22)                  1.2118         1.076905   
     32. B(C  24,C  22)                  1.5494         0.347911   
     33. B(C  24,Ni 20)                  2.6392         0.064235   
     34. B(C  25,C  24)                  1.5095         0.402817   
     35. B(C  26,C  25)                  1.3906         0.623411   
     36. B(C  27,C  26)                  1.3862         0.633595   
     37. B(C  28,C  27)                  1.3835         0.639823   
     38. B(C  29,C  28)                  1.3855         0.635143   
     39. B(C  30,C  29)                  1.3828         0.641642   
     40. B(C  30,C  25)                  1.3924         0.619398   
     41. B(N  31,C  24)                  1.4787         0.403939   
     42. B(N  31,Ni 20)                  1.8544         1.028039   
     43. B(C  32,N  31)                  1.3763         0.588584   
     44. B(C  32,Ni 20)                  2.7689         0.039891   
     45. B(C  33,C  32)                  1.4052         0.590932   
     46. B(C  34,C  33)                  1.3773         0.654594   
     47. B(C  35,C  34)                  1.3863         0.633412   
     48. B(C  36,C  35)                  1.3857         0.634783   
     49. B(C  37,C  36)                  1.3793         0.649782   
     50. B(C  37,C  32)                  1.4028         0.596160   
     51. B(H  38,C   0)                  1.0911         0.358677   
     52. B(H  39,C   0)                  1.0962         0.351968   
     53. B(H  40,C   0)                  1.0900         0.360071   
     54. B(H  41,C   2)                  1.0952         0.353245   
     55. B(H  42,C   2)                  1.0931         0.355996   
     56. B(H  43,C   4)                  1.0814         0.371654   
     57. B(H  44,C   5)                  1.0801         0.373397   
     58. B(H  45,C   6)                  1.0796         0.374076   
     59. B(H  46,C   7)                  1.0798         0.373798   
     60. B(H  47,C   8)                  1.0801         0.373374   
     61. B(H  48,C   9)                  1.0976         0.350123   
     62. B(H  49,C   9)                  1.0910         0.358818   
     63. B(H  50,C  10)                  1.0978         0.349986   
     64. B(H  51,C  10)                  1.0929         0.356265   
     65. B(H  52,C  12)                  1.0880         0.362717   
     66. B(H  53,C  12)                  1.0868         0.364376   
     67. B(H  54,C  12)                  1.0950         0.353568   
     68. B(H  55,C  13)                  1.0940         0.354909   
     69. B(H  56,C  13)                  1.0931         0.356086   
     70. B(H  57,C  15)                  1.0799         0.373718   
     71. B(H  58,C  16)                  1.0797         0.373944   
     72. B(H  59,C  17)                  1.0795         0.374259   
     73. B(H  60,C  18)                  1.0800         0.373529   
     74. B(H  61,C  19)                  1.0813         0.371851   
     75. B(H  62,C  24)                  1.0952         0.353251   
     76. B(H  63,C  26)                  1.0804         0.372977   
     77. B(H  64,C  27)                  1.0814         0.371689   
     78. B(H  65,C  28)                  1.0803         0.373179   
     79. B(H  66,C  29)                  1.0806         0.372731   
     80. B(H  67,C  30)                  1.0806         0.372750   
     81. B(H  68,C  33)                  1.0955         0.352911   
     82. B(H  69,C  34)                  1.0818         0.371116   
     83. B(H  70,C  35)                  1.0795         0.374272   
     84. B(H  71,C  36)                  1.0811         0.372049   
     85. B(H  72,C  37)                  1.0802         0.373347   
     86. A(Ni 20,C   0,H  40)           85.7394         0.267825   
     87. A(Ni 20,C   0,H  38)           84.8423         0.267668   
     88. A(H  38,C   0,H  40)          108.5890         0.290655   
     89. A(N   1,C   0,Ni 20)           43.3965         0.300590   
     90. A(H  38,C   0,H  39)          108.2463         0.289619   
     91. A(Ni 20,C   0,H  39)          154.4166         0.266906   
     92. A(N   1,C   0,H  39)          111.0715         0.326585   
     93. A(H  39,C   0,H  40)          109.4784         0.289795   
     94. A(N   1,C   0,H  40)          109.1669         0.327812   
     95. A(N   1,C   0,H  38)          110.2457         0.327603   
     96. A(C   2,N   1,C   9)          110.2560         0.368908   
     97. A(C   9,N   1,Ni 20)          110.2192         0.481040   
     98. A(C   0,N   1,C   2)          109.2975         0.368242   
     99. A(C   0,N   1,Ni 20)          104.1976         0.480107   
    100. A(C   2,N   1,Ni 20)          113.2945         0.475502   
    101. A(C   0,N   1,C   9)          109.3637         0.372243   
    102. A(C   3,C   2,H  41)          109.4468         0.327586   
    103. A(C   3,C   2,H  42)          109.4787         0.328005   
    104. A(N   1,C   2,C   3)          114.8751         0.369188   
    105. A(H  41,C   2,H  42)          108.3598         0.289443   
    106. A(N   1,C   2,H  42)          106.9114         0.324394   
    107. A(N   1,C   2,H  41)          107.5641         0.323981   
    108. A(C   2,C   3,C   8)          120.2598         0.402538   
    109. A(C   2,C   3,C   4)          121.1827         0.402813   
    110. A(C   4,C   3,C   8)          118.5527         0.434860   
    111. A(C   3,C   4,H  43)          120.0685         0.355224   
    112. A(C   5,C   4,H  43)          119.1347         0.356621   
    113. A(C   3,C   4,C   5)          120.7873         0.436979   
    114. A(C   4,C   5,C   6)          120.1121         0.438781   
    115. A(C   6,C   5,H  44)          120.1014         0.356887   
    116. A(C   4,C   5,H  44)          119.7856         0.356905   
    117. A(C   5,C   6,C   7)          119.6469         0.438588   
    118. A(C   7,C   6,H  45)          120.2126         0.356867   
    119. A(C   5,C   6,H  45)          120.1353         0.356997   
    120. A(C   8,C   7,H  46)          119.7913         0.357065   
    121. A(C   6,C   7,C   8)          120.1400         0.438736   
    122. A(C   6,C   7,H  46)          120.0677         0.356821   
    123. A(C   3,C   8,H  47)          119.5558         0.355269   
    124. A(C   3,C   8,C   7)          120.7395         0.436798   
    125. A(C   7,C   8,H  47)          119.6980         0.356996   
    126. A(N   1,C   9,C  10)          107.7525         0.370136   
    127. A(Ni 20,C   9,H  49)          104.4594         0.253356   
    128. A(H  48,C   9,H  49)          107.7536         0.289398   
    129. A(C  10,C   9,H  49)          109.5246         0.325849   
    130. A(N   1,C   9,H  48)          111.6798         0.326869   
    131. A(Ni 20,C   9,H  48)          143.5787         0.252446   
    132. A(C  10,C   9,H  48)          111.1594         0.324538   
    133. A(N   1,C   9,H  49)          108.9409         0.328194   
    134. A(N   1,C   9,Ni 20)           39.8539         0.284088   
    135. A(C  10,C   9,Ni 20)           72.4646         0.282177   
    136. A(N  11,C  10,H  51)          107.9194         0.327097   
    137. A(C   9,C  10,N  11)          108.7986         0.369300   
    138. A(C   9,C  10,H  51)          109.9355         0.325467   
    139. A(Ni 20,C  10,H  51)           98.1343         0.258639   
    140. A(H  50,C  10,H  51)          107.6425         0.289057   
    141. A(N  11,C  10,Ni 20)           41.2333         0.290084   
    142. A(N  11,C  10,H  50)          111.1420         0.326141   
    143. A(C   9,C  10,Ni 20)           75.3594         0.288708   
    144. A(Ni 20,C  10,H  50)          148.2648         0.257958   
    145. A(C   9,C  10,H  50)          111.3379         0.324517   
    146. A(C  10,N  11,C  12)          107.2219         0.371695   
    147. A(C  12,N  11,Ni 20)          121.0570         0.481214   
    148. A(C  13,N  11,Ni 20)          101.4257         0.473880   
    149. A(C  10,N  11,Ni 20)          107.7709         0.480572   
    150. A(C  12,N  11,C  13)          107.9935         0.366864   
    151. A(C  10,N  11,C  13)          111.2224         0.366409   
    152. A(H  52,C  12,H  54)          108.8078         0.290335   
    153. A(N  11,C  12,H  54)          110.7103         0.327078   
    154. A(H  52,C  12,H  53)          107.9141         0.291711   
    155. A(N  11,C  12,H  53)          109.6366         0.328706   
    156. A(H  53,C  12,H  54)          109.6328         0.290543   
    157. A(N  11,C  12,H  52)          110.0870         0.328458   
    158. A(C  14,C  13,Ni 20)          159.7117         0.307769   
    159. A(H  55,C  13,H  56)          107.7103         0.289667   
    160. A(N  11,C  13,Ni 20)           44.7032         0.303214   
    161. A(N  11,C  13,H  56)          106.3435         0.323002   
    162. A(Ni 20,C  13,H  56)           85.9278         0.272836   
    163. A(C  14,C  13,H  56)          108.7319         0.327978   
    164. A(Ni 20,C  13,H  55)           78.2974         0.272699   
    165. A(N  11,C  13,H  55)          108.8603         0.322826   
    166. A(C  14,C  13,H  55)          109.0297         0.327799   
    167. A(N  11,C  13,C  14)          115.8655         0.367467   
    168. A(C  15,C  14,C  19)          118.4280         0.434703   
    169. A(C  13,C  14,C  19)          121.3836         0.402646   
    170. A(C  13,C  14,C  15)          120.1681         0.402456   
    171. A(C  14,C  15,H  57)          119.4683         0.355300   
    172. A(C  14,C  15,C  16)          120.8054         0.436845   
    173. A(C  16,C  15,H  57)          119.7225         0.357113   
    174. A(C  17,C  16,H  58)          120.0340         0.356807   
    175. A(C  15,C  16,H  58)          119.7988         0.357150   
    176. A(C  15,C  16,C  17)          120.1667         0.438766   
    177. A(C  18,C  17,H  59)          120.1428         0.357095   
    178. A(C  16,C  17,C  18)          119.6135         0.438627   
    179. A(C  16,C  17,H  59)          120.2393         0.356858   
    180. A(C  17,C  18,C  19)          120.0962         0.438764   
    181. A(C  17,C  18,H  60)          120.1298         0.356976   
    182. A(C  19,C  18,H  60)          119.7734         0.356845   
    183. A(C  14,C  19,C  18)          120.8682         0.436748   
    184. A(C  18,C  19,H  61)          119.0283         0.356572   
    185. A(C  14,C  19,H  61)          120.0958         0.355160   
    186. A(C   0,Ni 20,N   1)           32.4059         0.381864   
    187. A(C   9,Ni 20,C  22)          142.8338         0.238085   
    188. A(O  21,Ni 20,N  31)           84.6629         0.677870   
    189. A(N   1,Ni 20,C  13)           94.5988         0.390831   
    190. A(C   0,Ni 20,C  22)          108.7052         0.251081   
    191. A(C  13,Ni 20,N  31)           87.6203         0.399245   
    192. A(C  13,Ni 20,O  21)          144.5051         0.408430   
    193. A(C  10,Ni 20,O  21)          151.3183         0.383728   
    194. A(C  22,Ni 20,N  31)           61.4766         0.396945   
    195. A(C   9,Ni 20,O  21)          122.2744         0.374089   
    196. A(N  31,Ni 20,C  32)           26.2337         0.364736   
    197. A(C  24,Ni 20,C  32)           53.0839         0.237071   
    198. A(C  22,Ni 20,C  32)           69.9547         0.237463   
    199. A(N   1,Ni 20,O  21)           92.6798         0.661901   
    200. A(O  21,Ni 20,C  32)           84.7701         0.372900   
    201. A(C  13,Ni 20,C  32)          102.7330         0.238572   
    202. A(C   0,Ni 20,O  21)           82.1509         0.398941   
    203. A(N  11,Ni 20,C  32)           93.9777         0.357737   
    204. A(C  10,Ni 20,C  32)          115.4295         0.227005   
    205. A(N  11,Ni 20,C  13)           33.8711         0.391370   
    206. A(N   1,Ni 20,C  22)          115.9545         0.388594   
    207. A(C   9,Ni 20,C  32)          146.2131         0.222492   
    208. A(N   1,Ni 20,C  32)          153.5342         0.357259   
    209. A(C  10,Ni 20,C  13)           54.4203         0.244276   
    210. A(C   9,Ni 20,C  13)           67.9972         0.239198   
    211. A(C  10,Ni 20,C  22)          174.4519         0.243126   
    212. A(C   0,Ni 20,C  32)          121.5288         0.234129   
    213. A(C  24,Ni 20,N  31)           32.9088         0.396131   
    214. A(N  11,Ni 20,N  31)           93.3093         0.646419   
    215. A(C   0,Ni 20,C  13)          119.9790         0.252291   
    216. A(C  10,Ni 20,N  31)          122.6411         0.375252   
    217. A(C  10,Ni 20,N  11)           30.9958         0.367987   
    218. A(C   0,Ni 20,N  31)          146.5797         0.390028   
    219. A(C   9,Ni 20,N  11)           59.6525         0.358862   
    220. A(N   1,Ni 20,N  11)           89.3488         0.631303   
    221. A(C   9,Ni 20,N  31)          152.7113         0.365891   
    222. A(C   0,Ni 20,N  11)          100.2440         0.382387   
    223. A(C   9,Ni 20,C  10)           32.1760         0.227583   
    224. A(N   1,Ni 20,C  10)           59.9717         0.367489   
    225. A(C  22,Ni 20,C  24)           34.1595         0.254367   
    226. A(O  21,Ni 20,C  24)           60.6563         0.405224   
    227. A(C  13,Ni 20,C  24)           96.0198         0.255602   
    228. A(C   0,Ni 20,C  10)           70.0445         0.239664   
    229. A(N  11,Ni 20,C  24)          116.9731         0.388335   
    230. A(C  10,Ni 20,C  24)          147.6748         0.242718   
    231. A(C   9,Ni 20,C  24)          155.4229         0.237691   
    232. A(N   1,Ni 20,C  24)          145.0676         0.387802   
    233. A(C   0,Ni 20,C  24)          142.2083         0.250652   
    234. A(N   1,Ni 20,C   9)           29.9269         0.358381   
    235. A(C   0,Ni 20,C   9)           52.4582         0.234736   
    236. A(O  21,Ni 20,C  22)           26.5914         0.406063   
    237. A(C  13,Ni 20,C  22)          124.2507         0.256044   
    238. A(N  11,Ni 20,C  22)          151.0196         0.389129   
    239. A(Ni 20,O  21,C  22)          114.5052         0.567958   
    240. A(O  23,C  22,C  24)          123.8222         0.429246   
    241. A(O  21,C  22,C  24)          111.7239         0.406037   
    242. A(Ni 20,C  22,C  24)           73.0328         0.298873   
    243. A(O  21,C  22,O  23)          124.4531         0.495057   
    244. A(Ni 20,C  22,O  23)          162.6761         0.357803   
    245. A(Ni 20,C  22,O  21)           38.9035         0.339468   
    246. A(N  31,C  24,H  62)          111.9365         0.325517   
    247. A(C  25,C  24,N  31)          107.2628         0.370714   
    248. A(C  22,C  24,N  31)          104.3020         0.361524   
    249. A(Ni 20,C  24,N  31)           42.9489         0.303732   
    250. A(C  25,C  24,H  62)          110.4433         0.327329   
    251. A(C  22,C  24,H  62)          110.6724         0.319554   
    252. A(Ni 20,C  24,H  62)          151.5794         0.270662   
    253. A(C  22,C  24,C  25)          112.0494         0.363612   
    254. A(Ni 20,C  24,C  25)           92.9177         0.305377   
    255. A(Ni 20,C  24,C  22)           72.8077         0.298318   
    256. A(C  26,C  25,C  30)          118.7812         0.434419   
    257. A(C  24,C  25,C  30)          119.2828         0.401908   
    258. A(C  24,C  25,C  26)          121.7552         0.402366   
    259. A(C  27,C  26,H  63)          119.6524         0.356325   
    260. A(C  25,C  26,H  63)          119.8876         0.355347   
    261. A(C  25,C  26,C  27)          120.4132         0.436195   
    262. A(C  28,C  27,H  64)          119.8765         0.356708   
    263. A(C  26,C  27,H  64)          119.7827         0.356116   
    264. A(C  26,C  27,C  28)          120.3393         0.438243   
    265. A(C  29,C  28,H  65)          120.1354         0.356506   
    266. A(C  27,C  28,H  65)          120.2279         0.356950   
    267. A(C  27,C  28,C  29)          119.6330         0.438436   
    268. A(C  30,C  29,H  66)          119.9867         0.357050   
    269. A(C  28,C  29,H  66)          119.9268         0.356433   
    270. A(C  28,C  29,C  30)          120.0865         0.438661   
    271. A(C  29,C  30,H  67)          120.0404         0.357053   
    272. A(C  25,C  30,H  67)          119.2195         0.354921   
    273. A(C  25,C  30,C  29)          120.7394         0.436680   
    274. A(C  24,N  31,C  32)          115.8236         0.393437   
    275. A(Ni 20,N  31,C  32)          117.2092         0.524437   
    276. A(Ni 20,N  31,C  24)          104.1423         0.488872   
    277. A(C  33,C  32,C  37)          117.3513         0.427320   
    278. A(N  31,C  32,C  37)          122.6964         0.424234   
    279. A(Ni 20,C  32,C  37)          159.1382         0.301284   
    280. A(N  31,C  32,C  33)          119.7904         0.423566   
    281. A(Ni 20,C  32,C  33)           83.5098         0.300861   
    282. A(Ni 20,C  32,N  31)           36.5570         0.298928   
    283. A(C  32,C  33,C  34)          121.6000         0.434557   
    284. A(C  34,C  33,H  68)          120.7980         0.354955   
    285. A(C  32,C  33,H  68)          117.5427         0.348867   
    286. A(C  33,C  34,C  35)          120.1780         0.440029   
    287. A(C  35,C  34,H  69)          119.9228         0.356005   
    288. A(C  33,C  34,H  69)          119.8907         0.358001   
    289. A(C  34,C  35,C  36)          119.1038         0.437596   
    290. A(C  36,C  35,H  70)          120.4560         0.356648   
    291. A(C  34,C  35,H  70)          120.4354         0.356517   
    292. A(C  35,C  36,C  37)          121.0884         0.439615   
    293. A(C  37,C  36,H  71)          119.2200         0.357704   
    294. A(C  35,C  36,H  71)          119.6915         0.356288   
    295. A(C  32,C  37,C  36)          120.6710         0.434668   
    296. A(C  36,C  37,H  72)          119.5167         0.357916   
    297. A(C  32,C  37,H  72)          119.8061         0.352725   
    298. D(C   2,N   1,C   0,H  40)     60.2069         0.016604   
    299. D(C   9,N   1,C   0,H  40)   -179.0042         0.016604   
    300. D(C   2,N   1,C   0,Ni 20)    121.3849         0.016604   
    301. D(C   9,N   1,C   0,H  38)    -59.8007         0.016604   
    302. D(C   2,N   1,C   0,H  39)    -60.6065         0.016604   
    303. D(C   9,N   1,C   0,H  39)     60.1825         0.016604   
    304. D(C   2,N   1,C   0,H  38)    179.4103         0.016604   
    305. D(C   9,N   1,C   0,Ni 20)   -117.8262         0.016604   
    306. D(H  42,C   2,N   1,C   0)    -61.1230         0.014086   
    307. D(H  41,C   2,N   1,Ni 20)    -61.6244         0.014086   
    308. D(H  41,C   2,N   1,C   0)   -177.3262         0.014086   
    309. D(C   3,C   2,N   1,C   0)     60.5546         0.014086   
    310. D(C   3,C   2,N   1,Ni 20)    176.2564         0.014086   
    311. D(H  41,C   2,N   1,C   9)     62.4303         0.014086   
    312. D(C   3,C   2,N   1,C   9)    -59.6890         0.014086   
    313. D(C   4,C   3,C   2,H  41)    -30.8940         0.012145   
    314. D(C   8,C   3,C   2,N   1)    -90.6014         0.012145   
    315. D(C   4,C   3,C   2,H  42)   -149.5273         0.012145   
    316. D(C   4,C   3,C   2,N   1)     90.2011         0.012145   
    317. D(C   8,C   3,C   2,H  41)    148.3034         0.012145   
    318. D(C   5,C   4,C   3,C   8)      1.4083         0.026998   
    319. D(H  43,C   4,C   3,C   8)   -177.4610         0.026998   
    320. D(H  43,C   4,C   3,C   2)      1.7497         0.026998   
    321. D(C   5,C   4,C   3,C   2)   -179.3809         0.026998   
    322. D(H  44,C   5,C   4,C   3)   -179.8873         0.028360   
    323. D(C   6,C   5,C   4,C   3)     -0.2385         0.028360   
    324. D(C   6,C   5,C   4,H  43)    178.6413         0.028360   
    325. D(H  44,C   5,C   4,H  43)     -1.0075         0.028360   
    326. D(H  45,C   6,C   5,C   4)    179.9614         0.028343   
    327. D(H  45,C   6,C   5,H  44)     -0.3908         0.028343   
    328. D(C   7,C   6,C   5,C   4)     -0.8669         0.028343   
    329. D(C   7,C   6,C   5,H  44)    178.7808         0.028343   
    330. D(H  46,C   7,C   6,C   5)   -178.8562         0.028213   
    331. D(C   8,C   7,C   6,H  45)    179.9474         0.028213   
    332. D(H  46,C   7,C   6,H  45)      0.3148         0.028213   
    333. D(C   8,C   7,C   6,C   5)      0.7764         0.028213   
    334. D(C   7,C   8,C   3,C   2)    179.2827         0.026777   
    335. D(H  47,C   8,C   7,H  46)      0.9982         0.028456   
    336. D(H  47,C   8,C   3,C   2)     -1.6599         0.026777   
    337. D(H  47,C   8,C   3,C   4)    177.5584         0.026777   
    338. D(C   3,C   8,C   7,H  46)   -179.9457         0.028456   
    339. D(H  47,C   8,C   7,C   6)   -178.6354         0.028456   
    340. D(C   3,C   8,C   7,C   6)      0.4207         0.028456   
    341. D(C   7,C   8,C   3,C   4)     -1.4990         0.026777   
    342. D(H  48,C   9,N   1,C   2)     83.1403         0.016959   
    343. D(H  48,C   9,N   1,Ni 20)   -151.0477         0.016959   
    344. D(H  48,C   9,N   1,C   0)    -37.0635         0.016959   
    345. D(Ni 20,C   9,N   1,C   2)   -125.8121         0.016959   
    346. D(Ni 20,C   9,N   1,C   0)    113.9842         0.016959   
    347. D(C  10,C   9,N   1,C   2)   -154.5066         0.016959   
    348. D(C  10,C   9,N   1,C   0)     85.2897         0.016959   
    349. D(C  10,C   9,N   1,Ni 20)    -28.6945         0.016959   
    350. D(Ni 20,C  10,C   9,N   1)     18.8253         0.013248   
    351. D(Ni 20,C  10,C   9,H  48)    141.4987         0.013248   
    352. D(Ni 20,C  10,C   9,H  49)    -99.5432         0.013248   
    353. D(N  11,C  10,C   9,N   1)     43.3209         0.013248   
    354. D(N  11,C  10,C   9,Ni 20)     24.4956         0.013248   
    355. D(H  50,C  10,C   9,N   1)    166.1422         0.013248   
    356. D(N  11,C  10,C   9,H  48)    165.9943         0.013248   
    357. D(N  11,C  10,C   9,H  49)    -75.0476         0.013248   
    358. D(C  12,N  11,C  10,Ni 20)   -131.7988         0.016516   
    359. D(C  12,N  11,C  10,C   9)   -169.2889         0.016516   
    360. D(C  12,N  11,C  10,H  51)    -50.0395         0.016516   
    361. D(C  12,N  11,C  10,H  50)     67.7721         0.016516   
    362. D(C  13,N  11,C  10,H  50)    -50.0875         0.016516   
    363. D(C  13,N  11,C  10,Ni 20)    110.3416         0.016516   
    364. D(C  13,N  11,C  10,H  51)   -167.8991         0.016516   
    365. D(C  13,N  11,C  10,C   9)     72.8515         0.016516   
    366. D(H  54,C  12,N  11,C  10)    -56.6124         0.015767   
    367. D(H  53,C  12,N  11,C  13)    -57.7521         0.015767   
    368. D(H  52,C  12,N  11,Ni 20)    -60.2980         0.015767   
    369. D(H  53,C  12,N  11,Ni 20)     58.2709         0.015767   
    370. D(H  52,C  12,N  11,C  10)     63.7354         0.015767   
    371. D(H  52,C  12,N  11,C  13)   -176.3211         0.015767   
    372. D(H  53,C  12,N  11,C  10)   -177.6956         0.015767   
    373. D(C  14,C  13,N  11,C  10)     58.3721         0.014200   
    374. D(C  14,C  13,N  11,Ni 20)    172.7352         0.014200   
    375. D(H  55,C  13,N  11,C  10)    -64.8945         0.014200   
    376. D(Ni 20,C  13,N  11,C  12)    128.2452         0.014200   
    377. D(C  14,C  13,N  11,C  12)    -59.0196         0.014200   
    378. D(H  55,C  13,N  11,Ni 20)     49.4685         0.014200   
    379. D(H  55,C  13,N  11,C  12)    177.7137         0.014200   
    380. D(Ni 20,C  13,N  11,C  10)   -114.3631         0.014200   
    381. D(C  19,C  14,C  13,N  11)    -90.4598         0.012968   
    382. D(C  15,C  14,C  13,N  11)     91.2048         0.012968   
    383. D(C  15,C  14,C  13,H  55)   -145.6173         0.012968   
    384. D(C  15,C  14,C  13,Ni 20)    106.0695         0.012968   
    385. D(C  19,C  14,C  13,Ni 20)    -75.5951         0.012968   
    386. D(C  15,C  14,C  13,H  56)    -28.4399         0.012968   
    387. D(H  57,C  15,C  14,C  13)      0.5875         0.026754   
    388. D(H  57,C  15,C  14,C  19)   -177.7966         0.026754   
    389. D(C  16,C  15,C  14,C  19)      1.4899         0.026754   
    390. D(C  16,C  15,C  14,C  13)    179.8740         0.026754   
    391. D(H  58,C  16,C  15,H  57)     -0.7782         0.028517   
    392. D(H  58,C  16,C  15,C  14)    179.9370         0.028517   
    393. D(C  17,C  16,C  15,C  14)     -0.3439         0.028517   
    394. D(C  17,C  16,C  15,H  57)    178.9408         0.028517   
    395. D(H  59,C  17,C  16,H  58)     -0.3321         0.028175   
    396. D(H  59,C  17,C  16,C  15)    179.9495         0.028175   
    397. D(C  18,C  17,C  16,H  58)    178.9118         0.028175   
    398. D(C  18,C  17,C  16,C  15)     -0.8066         0.028175   
    399. D(H  60,C  18,C  17,H  59)      0.3363         0.028410   
    400. D(H  60,C  18,C  17,C  16)   -178.9083         0.028410   
    401. D(C  19,C  18,C  17,H  59)   -179.9751         0.028410   
    402. D(C  19,C  18,C  17,C  16)      0.7803         0.028410   
    403. D(H  61,C  19,C  18,H  60)      1.0986         0.028280   
    404. D(H  61,C  19,C  18,C  17)   -178.5911         0.028280   
    405. D(C  18,C  19,C  14,C  15)     -1.5169         0.026907   
    406. D(H  61,C  19,C  14,C  15)    177.4603         0.026907   
    407. D(H  61,C  19,C  14,C  13)     -0.9032         0.026907   
    408. D(C  14,C  19,C  18,H  60)   -179.9134         0.028280   
    409. D(C  18,C  19,C  14,C  13)   -179.8804         0.026907   
    410. D(C  14,C  19,C  18,C  17)      0.3968         0.028280   
    411. D(N  11,Ni 20,C   0,H  38)    -54.7888         0.010000   
    412. D(N  11,Ni 20,C   0,N   1)     72.1661         0.010000   
    413. D(C  10,Ni 20,C   0,H  40)   -171.0076         0.010000   
    414. D(C  10,Ni 20,C   0,H  39)     60.7692         0.010000   
    415. D(C  10,Ni 20,C   0,H  38)    -61.8793         0.010000   
    416. D(C   9,Ni 20,C   0,H  40)    157.9338         0.010000   
    417. D(C   9,Ni 20,C   0,H  38)    -92.9379         0.010000   
    418. D(C   9,Ni 20,C   0,N   1)     34.0170         0.010000   
    419. D(C   9,Ni 20,C   0,H  39)     29.7106         0.010000   
    420. D(N   1,Ni 20,C   0,H  40)    123.9168         0.010000   
    421. D(N   1,Ni 20,C   0,H  39)     -4.3064         0.010000   
    422. D(N   1,Ni 20,C   0,H  38)   -126.9549         0.010000   
    423. D(N  11,Ni 20,C   0,H  39)     67.8597         0.010000   
    424. D(C  10,Ni 20,C   0,N   1)     65.0756         0.010000   
    425. D(C  10,Ni 20,C  13,C  14)     15.2193         0.010000   
    426. D(C  10,Ni 20,C  13,N  11)     34.3763         0.010000   
    427. D(C   9,Ni 20,C  13,H  56)   -173.8441         0.010000   
    428. D(C   9,Ni 20,C  13,H  55)    -64.8060         0.010000   
    429. D(C   9,Ni 20,C  13,C  14)     48.7712         0.010000   
    430. D(C   9,Ni 20,C  13,N  11)     67.9282         0.010000   
    431. D(N   1,Ni 20,C  13,H  55)    -50.7990         0.010000   
    432. D(N   1,Ni 20,C  13,C  14)     62.7782         0.010000   
    433. D(N   1,Ni 20,C  13,N  11)     81.9352         0.010000   
    434. D(C   0,Ni 20,C  13,H  55)    -72.1414         0.010000   
    435. D(C   0,Ni 20,C  13,C  14)     41.4358         0.010000   
    436. D(C   0,Ni 20,C  13,N  11)     60.5928         0.010000   
    437. D(C  13,Ni 20,N  11,C  12)   -119.3142         0.010000   
    438. D(C  13,Ni 20,N  11,C  10)    116.9098         0.010000   
    439. D(C  10,Ni 20,N  11,C  13)   -116.9098         0.010000   
    440. D(C  10,Ni 20,N  11,C  12)    123.7760         0.010000   
    441. D(C   9,Ni 20,N  11,C  13)    -95.3505         0.010000   
    442. D(C   9,Ni 20,N  11,C  12)    145.3353         0.010000   
    443. D(C   9,Ni 20,N  11,C  10)     21.5593         0.010000   
    444. D(N   1,Ni 20,N  11,C  12)    141.4321         0.010000   
    445. D(N   1,Ni 20,N  11,C  10)     17.6562         0.010000   
    446. D(C   0,Ni 20,N  11,C  13)   -129.9305         0.010000   
    447. D(C   0,Ni 20,N  11,C  10)    -13.0207         0.010000   
    448. D(N  11,Ni 20,C  10,H  51)   -107.9667         0.010000   
    449. D(N  11,Ni 20,C  10,H  50)     36.4393         0.010000   
    450. D(C   9,Ni 20,C  10,H  51)    108.5811         0.010000   
    451. D(C   9,Ni 20,C  10,H  50)   -107.0128         0.010000   
    452. D(C   9,Ni 20,C  10,N  11)   -143.4522         0.010000   
    453. D(N   1,Ni 20,C  10,H  51)     92.5391         0.010000   
    454. D(N   1,Ni 20,C  10,H  50)   -123.0548         0.010000   
    455. D(N   1,Ni 20,C  10,N  11)   -159.4942         0.010000   
    456. D(N   1,Ni 20,C  10,C   9)    -16.0420         0.010000   
    457. D(C   0,Ni 20,C  10,H  50)   -157.2038         0.010000   
    458. D(C   0,Ni 20,C  10,C   9)    -50.1910         0.010000   
    459. D(N  11,Ni 20,C   9,H  49)     85.4739         0.010000   
    460. D(C   0,Ni 20,C  10,N  11)    166.3569         0.010000   
    461. D(N  11,Ni 20,C   9,H  48)   -122.8997         0.010000   
    462. D(N  11,Ni 20,C   9,C  10)    -20.8153         0.010000   
    463. D(N  11,Ni 20,C  10,C   9)    143.4522         0.010000   
    464. D(C   0,Ni 20,C  10,H  51)     58.3901         0.010000   
    465. D(N  11,Ni 20,C   9,N   1)   -172.1585         0.010000   
    466. D(C  10,Ni 20,C   9,H  49)    106.2892         0.010000   
    467. D(C   0,Ni 20,N  11,C  12)    110.7553         0.010000   
    468. D(C  10,Ni 20,C   9,H  48)   -102.0845         0.010000   
    469. D(N   1,Ni 20,C   9,H  49)   -102.3676         0.010000   
    470. D(N   1,Ni 20,C   9,H  48)     49.2588         0.010000   
    471. D(N   1,Ni 20,N  11,C  13)    -99.2536         0.010000   
    472. D(C   0,Ni 20,C   9,H  49)   -139.3055         0.010000   
    473. D(C   0,Ni 20,C   9,H  48)     12.3208         0.010000   
    474. D(C   0,Ni 20,C   9,C  10)    114.4053         0.010000   
    475. D(C   0,Ni 20,C   9,N   1)    -36.9380         0.010000   
    476. D(N   1,Ni 20,C   9,C  10)    151.3433         0.010000   
    477. D(O  21,Ni 20,N   1,C   0)     70.8016         0.010000   
    478. D(C  10,Ni 20,C   9,N   1)   -151.3433         0.010000   
    479. D(C  22,Ni 20,N  11,C  10)    169.6422         0.010000   
    480. D(C  13,Ni 20,N   1,C   9)    -26.7320         0.010000   
    481. D(C  13,Ni 20,N   1,C   2)     97.3427         0.010000   
    482. D(C  13,Ni 20,N   1,C   0)   -143.9675         0.010000   
    483. D(C   0,Ni 20,C  13,H  56)    178.8206         0.010000   
    484. D(N  11,Ni 20,N   1,C   9)      6.7620         0.010000   
    485. D(N  11,Ni 20,N   1,C   2)    130.8367         0.010000   
    486. D(N  11,Ni 20,N   1,C   0)   -110.4735         0.010000   
    487. D(N   1,Ni 20,C  13,H  56)   -159.8370         0.010000   
    488. D(C  10,Ni 20,N   1,C   9)     17.1556         0.010000   
    489. D(C  10,Ni 20,N   1,C   2)    141.2303         0.010000   
    490. D(C  10,Ni 20,N   1,C   0)   -100.0799         0.010000   
    491. D(C   9,Ni 20,N   1,C   2)    124.0747         0.010000   
    492. D(C   9,Ni 20,N   1,C   0)   -117.2355         0.010000   
    493. D(C   0,Ni 20,N   1,C   9)    117.2355         0.010000   
    494. D(C   0,Ni 20,N   1,C   2)   -118.6898         0.010000   
    495. D(C  22,O  21,Ni 20,C  32)    -54.1205         0.010590   
    496. D(C  22,O  21,Ni 20,C  24)     -3.9477         0.010590   
    497. D(C  22,O  21,Ni 20,C  13)     50.5251         0.010590   
    498. D(C  22,O  21,Ni 20,C  10)    168.8998         0.010590   
    499. D(C  22,O  21,Ni 20,C   9)    147.5562         0.010590   
    500. D(C  22,O  21,Ni 20,N   1)    152.2884         0.010590   
    501. D(C  22,O  21,Ni 20,C   0)   -176.9880         0.010590   
    502. D(C  22,O  21,N  11,C  13)     52.8582         0.010000   
    503. D(C  22,O  21,Ni 20,N  31)    -27.7730         0.010590   
    504. D(C  22,O  21,N  11,C  12)    -65.6219         0.010000   
    505. D(C  22,O  21,N  11,C  10)    169.8422         0.010000   
    506. D(O  23,C  22,O  21,Ni 20)   -173.3641         0.052769   
    507. D(O  23,C  22,Ni 20,C  10)    -54.2260         0.010000   
    508. D(O  23,C  22,Ni 20,C   9)    -29.9976         0.010000   
    509. D(O  23,C  22,Ni 20,C   0)     21.8135         0.010000   
    510. D(O  21,C  22,Ni 20,C  32)    120.8057         0.010000   
    511. D(O  21,C  22,Ni 20,N  31)    148.1267         0.010000   
    512. D(O  21,C  22,Ni 20,C  24)    173.8645         0.010000   
    513. D(O  21,C  22,Ni 20,C  13)   -147.1651         0.010000   
    514. D(O  21,C  22,Ni 20,N  11)   -179.6163         0.010000   
    515. D(O  23,C  22,Ni 20,N   1)    -12.4425         0.010000   
    516. D(O  21,C  22,Ni 20,C  10)    -72.8891         0.010000   
    517. D(O  21,C  22,Ni 20,C   9)    -48.6608         0.010000   
    518. D(O  21,C  22,Ni 20,N   1)    -31.1056         0.010000   
    519. D(C  24,C  22,O  21,Ni 20)      6.3178         0.052769   
    520. D(O  21,C  22,Ni 20,C   0)      3.1503         0.010000   
    521. D(N  31,C  24,C  22,O  21)     25.4466         0.010335   
    522. D(N  31,C  24,C  22,Ni 20)     29.5901         0.010335   
    523. D(C  25,C  24,C  22,O  23)     89.4304         0.010335   
    524. D(C  25,C  24,C  22,O  21)    -90.2540         0.010335   
    525. D(C  25,C  24,C  22,Ni 20)    -86.1105         0.010335   
    526. D(Ni 20,C  24,C  22,O  21)     -4.1434         0.010335   
    527. D(C  25,C  24,Ni 20,N  11)    -64.2697         0.010000   
    528. D(C  25,C  24,Ni 20,C  10)    -58.2457         0.010000   
    529. D(C  25,C  24,Ni 20,C   9)     11.2376         0.010000   
    530. D(C  25,C  24,Ni 20,N   1)     70.6722         0.010000   
    531. D(C  25,C  24,Ni 20,C   0)    126.6342         0.010000   
    532. D(C  22,C  24,Ni 20,C  32)    110.0970         0.010000   
    533. D(C  22,C  24,Ni 20,N  31)    135.3908         0.010000   
    534. D(C  22,C  24,Ni 20,O  21)      3.1462         0.010000   
    535. D(Ni 20,C  24,C  22,O  23)    175.5409         0.010335   
    536. D(C  22,C  24,Ni 20,C  13)   -148.4840         0.010000   
    537. D(C  22,C  24,Ni 20,N  11)   -176.4612         0.010000   
    538. D(C  22,C  24,Ni 20,C  10)   -170.4373         0.010000   
    539. D(C  22,C  24,Ni 20,C   9)   -100.9540         0.010000   
    540. D(C  22,C  24,Ni 20,N   1)    -41.5194         0.010000   
    541. D(C  22,C  24,Ni 20,C   0)     14.4426         0.010000   
    542. D(C  30,C  25,C  24,C  22)   -170.8228         0.012868   
    543. D(C  30,C  25,C  24,Ni 20)    116.5553         0.012868   
    544. D(C  26,C  25,C  24,H  62)    138.0056         0.012868   
    545. D(C  26,C  25,C  24,N  31)    -99.7635         0.012868   
    546. D(C  26,C  25,C  24,C  22)     14.1253         0.012868   
    547. D(C  26,C  25,C  24,Ni 20)    -58.4966         0.012868   
    548. D(H  63,C  26,C  25,C  30)    176.9872         0.026911   
    549. D(H  63,C  26,C  25,C  24)     -7.9368         0.026911   
    550. D(C  27,C  26,C  25,C  30)     -0.5161         0.026911   
    551. D(C  27,C  26,C  25,C  24)    174.5599         0.026911   
    552. D(C  28,C  27,C  26,C  25)     -0.1847         0.027855   
    553. D(H  64,C  27,C  26,H  63)      1.8692         0.027855   
    554. D(H  64,C  27,C  26,C  25)    179.3783         0.027855   
    555. D(C  28,C  27,C  26,H  63)   -177.6938         0.027855   
    556. D(H  65,C  28,C  27,H  64)      0.5929         0.028442   
    557. D(H  65,C  28,C  27,C  26)   -179.8445         0.028442   
    558. D(C  29,C  28,C  27,H  64)   -178.7100         0.028442   
    559. D(C  29,C  28,C  27,C  26)      0.8526         0.028442   
    560. D(H  66,C  29,C  28,H  65)     -0.1605         0.028000   
    561. D(H  66,C  29,C  28,C  27)    179.1431         0.028000   
    562. D(C  30,C  29,C  28,H  65)    179.8833         0.028000   
    563. D(C  30,C  29,C  28,C  27)     -0.8130         0.028000   
    564. D(H  67,C  30,C  29,H  66)      0.4440         0.028615   
    565. D(H  67,C  30,C  29,C  28)   -179.5999         0.028615   
    566. D(C  25,C  30,C  29,H  66)   -179.8490         0.028615   
    567. D(C  25,C  30,C  29,C  28)      0.1071         0.028615   
    568. D(H  67,C  30,C  25,C  26)   -179.7352         0.026545   
    569. D(H  67,C  30,C  25,C  24)      5.0648         0.026545   
    570. D(C  29,C  30,C  25,C  26)      0.5554         0.026545   
    571. D(C  29,C  30,C  25,C  24)   -174.6446         0.026545   
    572. D(C  32,N  31,C  24,H  62)    -33.2897         0.014909   
    573. D(C  32,N  31,C  24,C  22)     86.4079         0.014909   
    574. D(C  32,N  31,C  24,Ni 20)    130.2240         0.014909   
    575. D(Ni 20,N  31,C  24,H  62)   -163.5137         0.014909   
    576. D(Ni 20,N  31,C  24,C  22)    -43.8161         0.014909   
    577. D(C  32,N  31,Ni 20,C  13)    125.6890         0.010000   
    578. D(C  32,N  31,Ni 20,N  11)     92.2841         0.010000   
    579. D(C  32,N  31,Ni 20,C  10)     81.5932         0.010000   
    580. D(C  32,N  31,Ni 20,C   9)     99.6416         0.010000   
    581. D(C  32,N  31,Ni 20,C   0)    -21.9870         0.010000   
    582. D(C  24,N  31,Ni 20,C  32)    129.3945         0.010000   
    583. D(C  24,N  31,Ni 20,C  22)     26.6665         0.010000   
    584. D(C  24,N  31,Ni 20,O  21)     40.3993         0.010000   
    585. D(C  24,N  31,Ni 20,C  13)   -104.9165         0.010000   
    586. D(C  24,N  31,Ni 20,N  11)   -138.3214         0.010000   
    587. D(C  24,N  31,Ni 20,C  10)   -149.0123         0.010000   
    588. D(C  24,N  31,Ni 20,C   9)   -130.9639         0.010000   
    589. D(C  24,N  31,Ni 20,C   0)    107.4075         0.010000   
    590. D(C  32,N  31,N   1,C   9)     99.7929         0.010000   
    591. D(Ni 20,N  31,C  24,C  25)     75.1904         0.014909   
    592. D(C  32,N  31,N   1,C   2)   -135.7722         0.010000   
    593. D(C  32,N  31,N   1,C   0)    -17.8081         0.010000   
    594. D(C  24,N  31,N   1,C   9)   -131.7164         0.010000   
    595. D(C  32,N  31,C  24,C  25)   -154.5856         0.014909   
    596. D(C  24,N  31,N   1,C   2)     -7.2815         0.010000   
    597. D(C  24,N  31,N   1,C   0)    110.6826         0.010000   
    598. D(C  37,C  32,N  31,C  24)     53.2989         0.030259   
    599. D(C  37,C  32,N  31,Ni 20)    176.9417         0.030259   
    600. D(C  33,C  32,N  31,C  24)   -131.4509         0.030259   
    601. D(Ni 20,C  32,N  31,C  24)   -123.6428         0.030259   
    602. D(C  33,C  32,Ni 20,C  10)     60.4621         0.010000   
    603. D(C  33,C  32,Ni 20,C   9)     47.5548         0.010000   
    604. D(C  33,C  32,Ni 20,N   1)    -12.7829         0.010000   
    605. D(C  33,C  32,Ni 20,C   0)    -20.8149         0.010000   
    606. D(N  31,C  32,Ni 20,C  24)     31.6780         0.010000   
    607. D(N  31,C  32,Ni 20,C  22)     65.8247         0.010000   
    608. D(N  31,C  32,Ni 20,O  21)     88.5353         0.010000   
    609. D(N  31,C  32,Ni 20,C  13)    -56.3001         0.010000   
    610. D(N  31,C  32,Ni 20,N  11)    -89.4157         0.010000   
    611. D(C  33,C  32,N  31,Ni 20)     -7.8080         0.030259   
    612. D(N  31,C  32,Ni 20,C  10)   -112.7230         0.010000   
    613. D(N  31,C  32,Ni 20,C   9)   -125.6303         0.010000   
    614. D(N  31,C  32,Ni 20,N   1)    174.0320         0.010000   
    615. D(N  31,C  32,Ni 20,C   0)    166.0000         0.010000   
    616. D(H  68,C  33,C  32,N  31)      8.1502         0.026104   
    617. D(H  68,C  33,C  32,Ni 20)      3.4789         0.026104   
    618. D(C  34,C  33,C  32,C  37)      0.8716         0.026104   
    619. D(C  34,C  33,C  32,N  31)   -174.6287         0.026104   
    620. D(C  34,C  33,C  32,Ni 20)   -179.3000         0.026104   
    621. D(H  69,C  34,C  33,H  68)     -2.0740         0.029865   
    622. D(H  69,C  34,C  33,C  32)   -179.2055         0.029865   
    623. D(C  35,C  34,C  33,H  68)    176.8662         0.029865   
    624. D(C  35,C  34,C  33,C  32)     -0.2652         0.029865   
    625. D(H  70,C  35,C  34,H  69)     -0.7506         0.027838   
    626. D(H  70,C  35,C  34,C  33)   -179.6905         0.027838   
    627. D(C  36,C  35,C  34,H  69)    178.4540         0.027838   
    628. D(C  36,C  35,C  34,C  33)     -0.4859         0.027838   
    629. D(H  71,C  36,C  35,H  70)     -0.2664         0.027966   
    630. D(H  71,C  36,C  35,C  34)   -179.4708         0.027966   
    631. D(C  37,C  36,C  35,H  70)    179.8140         0.027966   
    632. D(C  37,C  36,C  35,C  34)      0.6096         0.027966   
    633. D(H  72,C  37,C  36,H  71)     -0.8039         0.029396   
    634. D(H  72,C  37,C  36,C  35)    179.1160         0.029396   
    635. D(C  32,C  37,C  36,H  71)   -179.8999         0.029396   
    636. D(C  32,C  37,C  36,C  35)      0.0201         0.029396   
    637. D(H  72,C  37,C  32,N  31)     -4.4789         0.026595   
    638. D(H  72,C  37,C  32,Ni 20)      0.6406         0.026595   
    639. D(C  36,C  37,C  32,C  33)     -0.7450         0.026595   
    640. D(C  36,C  37,C  32,N  31)    174.6144         0.026595   
    641. D(C  36,C  37,C  32,Ni 20)    179.7339         0.026595   
    -----------------------------------------------------------------

Number of atoms                         .... 73
Number of degrees of freedom            .... 641


         *************************************************************
         *                GEOMETRY OPTIMIZATION CYCLE   1            *
         *************************************************************
---------------------------------
CARTESIAN COORDINATES (ANGSTROEM)
---------------------------------
  C     -1.254290   -5.841100    1.956813
  N     -0.149354   -5.736820    0.989364
  C     -0.635295   -6.139261   -0.356653
  C     -1.760045   -5.296210   -0.903302
  C     -1.504750   -4.166280   -1.671877
  C     -2.542861   -3.391387   -2.158739
  C     -3.854840   -3.738668   -1.887635
  C     -4.122687   -4.874535   -1.142602
  C     -3.083408   -5.648799   -0.658454
  C      0.343154   -4.352684    0.959587
  C      1.363070   -4.199117    2.077770
  N      2.239630   -5.382921    2.086593
  C      3.033823   -5.327588    3.323612
  C      3.184921   -5.364426    0.930129
  C      4.093168   -4.163375    0.841757
  C      5.347518   -4.189540    1.443241
  C      6.192023   -3.096648    1.368223
  C      5.798958   -1.959251    0.683162
  C      4.563797   -1.928855    0.060266
  C      3.720815   -3.024187    0.136461
  Ni     1.179117   -6.887261    1.678091
  O      0.219492   -8.378468    1.271318
  C      0.936753   -9.435927    1.050100
  O      0.495739  -10.492972    0.654336
  C      2.436515   -9.183888    1.346326
  C      3.179348   -8.689601    0.128777
  C      2.510162   -8.226744   -0.998935
  C      3.216066   -7.675120   -2.056736
  C      4.594855   -7.575463   -2.000462
  C      5.270885   -8.046806   -0.886680
  C      4.568114   -8.598009    0.168928
  N      2.433817   -8.084357    2.335093
  C      2.312549   -8.463197    3.652608
  C      1.374108   -7.822935    4.479586
  C      1.295780   -8.094875    5.827517
  C      2.150221   -9.023160    6.401945
  C      3.072397   -9.676833    5.600433
  C      3.159139   -9.408674    4.250208
  H     -0.911432   -5.558830    2.953419
  H     -2.084421   -5.180975    1.679667
  H     -1.605361   -6.872527    1.989310
  H      0.217910   -6.097749   -1.042110
  H     -0.963821   -7.178904   -0.278390
  H     -0.486337   -3.892941   -1.911780
  H     -2.326033   -2.517797   -2.755820
  H     -4.664986   -3.134061   -2.266746
  H     -5.144177   -5.162013   -0.942692
  H     -3.300720   -6.545508   -0.096845
  H     -0.474902   -3.628797    1.067309
  H      0.825459   -4.169030   -0.001595
  H      1.945723   -3.275865    1.962938
  H      0.853149   -4.151073    3.043241
  H      2.380977   -5.404765    4.190585
  H      3.726150   -6.164872    3.350893
  H      3.591323   -4.387098    3.384114
  H      2.610655   -5.446371    0.002640
  H      3.799791   -6.263553    1.021054
  H      5.668172   -5.079156    1.964719
  H      7.161590   -3.134236    1.841875
  H      6.456779   -1.105341    0.624565
  H      4.256130   -1.052648   -0.491163
  H      2.769266   -2.990576   -0.375931
  H      2.909867  -10.088814    1.742014
  H      1.437361   -8.333451   -1.070018
  H      2.686189   -7.327596   -2.932998
  H      5.142972   -7.142966   -2.824803
  H      6.348817   -7.983983   -0.843717
  H      5.095640   -8.959490    1.039989
  H      0.670883   -7.129543    4.005477
  H      0.554005   -7.595179    6.436089
  H      2.089119   -9.243142    7.457018
  H      3.737559  -10.408848    6.036921
  H      3.897076   -9.922695    3.651886

----------------------------
CARTESIAN COORDINATES (A.U.)
----------------------------
  NO LB      ZA    FRAG     MASS         X           Y           Z
   0 C     6.0000    0    12.011   -2.370265  -11.038079    3.697841
   1 N     7.0000    0    14.007   -0.282238  -10.841019    1.869627
   2 C     6.0000    0    12.011   -1.200534  -11.601522   -0.673976
   3 C     6.0000    0    12.011   -3.326003  -10.008386   -1.706993
   4 C     6.0000    0    12.011   -2.843565   -7.873128   -3.159390
   5 C     6.0000    0    12.011   -4.805311   -6.408793   -4.079426
   6 C     6.0000    0    12.011   -7.284592   -7.065059   -3.567113
   7 C     6.0000    0    12.011   -7.790749   -9.211536   -2.159205
   8 C     6.0000    0    12.011   -5.826797  -10.674683   -1.244298
   9 C     6.0000    0    12.011    0.648467   -8.225381    1.813357
  10 C     6.0000    0    12.011    2.575829   -7.935181    3.926416
  11 N     7.0000    0    14.007    4.232287  -10.172246    3.943089
  12 C     6.0000    0    12.011    5.733095  -10.067682    6.280716
  13 C     6.0000    0    12.011    6.018628  -10.137296    1.757689
  14 C     6.0000    0    12.011    7.734967   -7.867639    1.590690
  15 C     6.0000    0    12.011   10.105345   -7.917083    2.727330
  16 C     6.0000    0    12.011   11.701228   -5.851817    2.585567
  17 C     6.0000    0    12.011   10.958442   -3.702448    1.290989
  18 C     6.0000    0    12.011    8.624326   -3.645008    0.113886
  19 C     6.0000    0    12.011    7.031321   -5.714885    0.257874
  20 Ni   28.0000    0    58.700    2.228208  -13.015037    3.171132
  21 O     8.0000    0    15.999    0.414780  -15.833010    2.402443
  22 C     6.0000    0    12.011    1.770207  -17.831318    1.984401
  23 O     8.0000    0    15.999    0.936811  -19.828843    1.236516
  24 C     6.0000    0    12.011    4.604346  -17.355033    2.544187
  25 C     6.0000    0    12.011    6.008097  -16.420966    0.243353
  26 C     6.0000    0    12.011    4.743519  -15.546293   -1.887714
  27 C     6.0000    0    12.011    6.077484  -14.503875   -3.886668
  28 C     6.0000    0    12.011    8.683018  -14.315550   -3.780325
  29 C     6.0000    0    12.011    9.960529  -15.206260   -1.675582
  30 C     6.0000    0    12.011    8.632484  -16.247882    0.319228
  31 N     7.0000    0    14.007    4.599248  -15.277221    4.412686
  32 C     6.0000    0    12.011    4.370084  -15.993125    6.902429
  33 C     6.0000    0    12.011    2.596688  -14.783205    8.465191
  34 C     6.0000    0    12.011    2.448669  -15.297097   11.012411
  35 C     6.0000    0    12.011    4.063329  -17.051301   12.097923
  36 C     6.0000    0    12.011    5.805989  -18.286564   10.583285
  37 C     6.0000    0    12.011    5.969908  -17.779817    8.031729
  38 H     1.0000    0     1.008   -1.722357  -10.504666    5.581153
  39 H     1.0000    0     1.008   -3.938985   -9.790624    3.174111
  40 H     1.0000    0     1.008   -3.033693  -12.987194    3.759251
  41 H     1.0000    0     1.008    0.411790  -11.523076   -1.969303
  42 H     1.0000    0     1.008   -1.821358  -13.566163   -0.526081
  43 H     1.0000    0     1.008   -0.919044   -7.356592   -3.612741
  44 H     1.0000    0     1.008   -4.395565   -4.757947   -5.207745
  45 H     1.0000    0     1.008   -8.815546   -5.922517   -4.283529
  46 H     1.0000    0     1.008   -9.721086   -9.754791   -1.781430
  47 H     1.0000    0     1.008   -6.237457  -12.369218   -0.183011
  48 H     1.0000    0     1.008   -0.897435   -6.857433    2.016922
  49 H     1.0000    0     1.008    1.559891   -7.878325   -0.003014
  50 H     1.0000    0     1.008    3.676884   -6.190488    3.709415
  51 H     1.0000    0     1.008    1.612218   -7.844391    5.750892
  52 H     1.0000    0     1.008    4.499394  -10.213526    7.919058
  53 H     1.0000    0     1.008    7.041403  -11.649920    6.332270
  54 H     1.0000    0     1.008    6.786617   -8.290414    6.395049
  55 H     1.0000    0     1.008    4.933423  -10.292150    0.004989
  56 H     1.0000    0     1.008    7.180564  -11.836400    1.929512
  57 H     1.0000    0     1.008   10.711293   -9.598214    3.712781
  58 H     1.0000    0     1.008   13.533444   -5.922848    3.480639
  59 H     1.0000    0     1.008   12.201544   -2.088792    1.180257
  60 H     1.0000    0     1.008    8.042920   -1.989216   -0.928164
  61 H     1.0000    0     1.008    5.233154   -5.651370   -0.710407
  62 H     1.0000    0     1.008    5.498852  -19.065095    3.291929
  63 H     1.0000    0     1.008    2.716219  -15.747940   -2.022041
  64 H     1.0000    0     1.008    5.076162  -13.847150   -5.542563
  65 H     1.0000    0     1.008    9.718809  -13.498250   -5.338104
  66 H     1.0000    0     1.008   11.997525  -15.087541   -1.594394
  67 H     1.0000    0     1.008    9.629364  -16.930982    1.965294
  68 H     1.0000    0     1.008    1.267785  -13.472884    7.569255
  69 H     1.0000    0     1.008    1.046918  -14.352808   12.162446
  70 H     1.0000    0     1.008    3.947863  -17.467007   14.091722
  71 H     1.0000    0     1.008    7.062963  -19.669872   11.408127
  72 H     1.0000    0     1.008    7.364406  -18.751176    6.901064

--------------------------------
INTERNAL COORDINATES (ANGSTROEM)
--------------------------------
 C      0   0   0     0.000000000000     0.00000000     0.00000000
 N      1   0   0     1.472316355304     0.00000000     0.00000000
 C      2   1   0     1.486559510498   109.29751378     0.00000000
 C      3   2   1     1.508185227451   114.87513617    60.55455448
 C      4   3   2     1.390188790255   121.18270729    90.20114174
 C      5   4   3     1.383896028181   120.78727298   180.61909072
 C      6   5   4     1.383976288893   120.11213246   359.76154837
 C      7   6   5     1.384561312542   119.64694022   359.13307470
 C      8   7   6     1.383468419387   120.14001584     0.77640331
 C      2   1   3     1.469449987679   109.36367842   120.78892339
 C     10   2   1     1.521231307867   107.75249602    85.28967577
 N     11  10   2     1.473033329339   108.79862870    43.32085442
 C     12  11  10     1.471060932966   107.22193389   190.71114159
 C     12  11  10     1.493762405137   111.22238569    72.85154087
 C     14  12  11     1.508391768737   115.86545030    58.37212780
 C     15  14  12     1.391352411139   120.16808705    91.20479698
 C     16  15  14     1.383195329306   120.80535453   179.87401645
 C     17  16  15     1.384731238745   120.16669104   359.65609147
 C     18  17  16     1.383671218011   119.61354156   359.19335034
 C     19  18  17     1.384260279201   120.09616408     0.78031898
 Ni    12  11  10     1.885364830152   107.77091570   322.50992471
 O     21  12  11     1.819352283370   177.60427962   165.53025946
 C     22  21  12     1.296773026526   114.50517288     4.45141334
 O     23  22  21     1.211803046669   124.45311636   186.63586808
 C     23  22  21     1.549373924281   111.72391827     6.31783148
 C     25  23  22     1.509485366494   112.04938525   269.74604556
 C     26  25  23     1.390604494452   121.75517554    14.12528591
 C     27  26  25     1.386193511092   120.41317905   174.55994554
 C     28  27  26     1.383530768449   120.33928861   359.81532115
 C     29  28  27     1.385529187016   119.63296845     0.85257159
 C     30  29  28     1.382758140571   120.08646276   359.18697685
 N     25  23  22     1.478727790857   104.30198275    25.44663695
 C     32  25  23     1.376252683430   115.82364488    86.40787920
 C     33  32  25     1.405168869428   119.79044645   228.54914354
 C     34  33  32     1.377317908090   121.59996705   185.37134650
 C     35  34  33     1.386271975801   120.17798162   359.73476839
 C     36  35  34     1.385683388097   119.10377886   359.51410741
 C     37  36  35     1.379326275567   121.08843264     0.60956443
 H      1   2   3     1.091078127496   110.24572554   179.41033504
 H      1   2   3     1.096217313356   111.07154059   299.39352923
 H      1   2   3     1.090022274258   109.16685803    60.20690879
 H      3   2   1     1.095232083633   107.56406504   182.67382323
 H      3   2   1     1.093120303212   106.91135792   298.87698308
 H      5   4   3     1.081403114892   120.06849498     1.74973942
 H      6   5   4     1.080129432172   119.78556413   180.11268804
 H      7   6   5     1.079634806815   120.13527348   179.96143250
 H      8   7   6     1.079837686268   120.06766535   181.14383237
 H      9   8   7     1.080146381240   119.69804467   181.36462603
 H     10   2   1     1.097648412375   111.67982121   322.93653601
 H     10   2   1     1.090971008719   108.94085798   204.03238212
 H     11  10   2     1.097754600144   111.33785026   166.14217003
 H     11  10   2     1.092914408368   109.93547823   285.33873897
 H     13  12  11     1.088028663122   110.08700845    63.73542188
 H     13  12  11     1.086786742901   109.63662436   182.30436160
 H     13  12  11     1.094983188046   110.71034973   303.38755774
 H     14  12  11     1.093952588964   108.86029173   295.10545249
 H     14  12  11     1.093051615732   106.34347665   179.30908176
 H     16  15  14     1.079895791109   119.46827241     0.58747580
 H     17  16  15     1.079731097235   119.79875989   179.93702602
 H     18  17  16     1.079501905765   120.23932298   179.94949900
 H     19  18  17     1.080033162352   120.12975484   181.09167978
 H     20  19  18     1.081258877599   119.02827858   181.40888162
 H     25  23  22     1.095226996893   110.67237559   145.99395942
 H     27  26  25     1.080435635445   119.88756323   352.06318523
 H     28  27  26     1.081377666844   119.78272532   179.37834393
 H     29  28  27     1.080288843310   120.22794761   180.15554954
 H     30  29  28     1.080615540015   119.92678169   179.14309671
 H     31  30  29     1.080601434275   120.04044140   180.40007999
 H     34  33  32     1.095489484281   117.54273968     8.15021786
 H     35  34  33     1.081797634599   119.89073377   180.79452458
 H     36  35  34     1.079492737380   120.43537641   180.30951308
 H     37  36  35     1.081114342062   119.69148928   180.52915586
 H     38  37  36     1.080165644748   119.51669479   179.11601842

---------------------------
INTERNAL COORDINATES (A.U.)
---------------------------
 C      0   0   0     0.000000000000     0.00000000     0.00000000
 N      1   0   0     2.782274694019     0.00000000     0.00000000
 C      2   1   0     2.809190356617   109.29751378     0.00000000
 C      3   2   1     2.850057039108   114.87513617    60.55455448
 C      4   3   2     2.627076088029   121.18270729    90.20114174
 C      5   4   3     2.615184491083   120.78727298   180.61909072
 C      6   5   4     2.615336161848   120.11213246   359.76154837
 C      7   6   5     2.616441696326   119.64694022   359.13307470
 C      8   7   6     2.614376427570   120.14001584     0.77640331
 C      2   1   3     2.776858044207   109.36367842   120.78892339
 C     10   2   1     2.874710558215   107.75249602    85.28967577
 N     11  10   2     2.783629578590   108.79862870    43.32085442
 C     12  11  10     2.779902289617   107.22193389   190.71114159
 C     12  11  10     2.822801854857   111.22238569    72.85154087
 C     14  12  11     2.850447345574   115.86545030    58.37212780
 C     15  14  12     2.629275012823   120.16808705    91.20479698
 C     16  15  14     2.613860362107   120.80535453   179.87401645
 C     17  16  15     2.616762810313   120.16669104   359.65609147
 C     18  17  16     2.614759661431   119.61354156   359.19335034
 C     19  18  17     2.615872825755   120.09616408     0.78031898
 Ni    12  11  10     3.562823191514   107.77091570   322.50992471
 O     21  12  11     3.438077556693   177.60427962   165.53025946
 C     22  21  12     2.450545877991   114.50517288     4.45141334
 O     23  22  21     2.289975886456   124.45311636   186.63586808
 C     23  22  21     2.927892395929   111.72391827     6.31783148
 C     25  23  22     2.852513945835   112.04938525   269.74604556
 C     26  25  23     2.627861655114   121.75517554    14.12528591
 C     27  26  25     2.619526104582   120.41317905   174.55994554
 C     28  27  26     2.614494250223   120.33928861   359.81532115
 C     29  28  27     2.618270714015   119.63296845     0.85257159
 C     30  29  28     2.613034195128   120.08646276   359.18697685
 N     25  23  22     2.794390551339   104.30198275    25.44663695
[...]
freq.     302.83  E(vib)   ...       0.26 
freq.     308.86  E(vib)   ...       0.26 
freq.     323.66  E(vib)   ...       0.25 
freq.     337.28  E(vib)   ...       0.24 
freq.     349.78  E(vib)   ...       0.23 
freq.     387.86  E(vib)   ...       0.20 
freq.     404.71  E(vib)   ...       0.19 
freq.     409.73  E(vib)   ...       0.19 
freq.     413.04  E(vib)   ...       0.19 
freq.     414.78  E(vib)   ...       0.19 
freq.     415.63  E(vib)   ...       0.18 
freq.     439.39  E(vib)   ...       0.17 
freq.     446.91  E(vib)   ...       0.17 
freq.     456.03  E(vib)   ...       0.16 
freq.     461.03  E(vib)   ...       0.16 
freq.     474.94  E(vib)   ...       0.15 
freq.     477.30  E(vib)   ...       0.15 
freq.     485.80  E(vib)   ...       0.15 
freq.     489.64  E(vib)   ...       0.15 
freq.     510.32  E(vib)   ...       0.14 
freq.     521.54  E(vib)   ...       0.13 
freq.     537.60  E(vib)   ...       0.12 
freq.     565.02  E(vib)   ...       0.11 
freq.     586.91  E(vib)   ...       0.10 
freq.     620.78  E(vib)   ...       0.09 
freq.     637.46  E(vib)   ...       0.09 
freq.     640.90  E(vib)   ...       0.09 
freq.     641.30  E(vib)   ...       0.09 
freq.     642.53  E(vib)   ...       0.09 
freq.     644.49  E(vib)   ...       0.09 
freq.     655.77  E(vib)   ...       0.08 
freq.     667.59  E(vib)   ...       0.08 
freq.     701.35  E(vib)   ...       0.07 
freq.     704.83  E(vib)   ...       0.07 
freq.     713.28  E(vib)   ...       0.07 
freq.     714.58  E(vib)   ...       0.07 
freq.     719.87  E(vib)   ...       0.07 
freq.     733.41  E(vib)   ...       0.06 
freq.     753.51  E(vib)   ...       0.06 
freq.     757.87  E(vib)   ...       0.06 
freq.     764.95  E(vib)   ...       0.06 
freq.     783.04  E(vib)   ...       0.05 
freq.     790.29  E(vib)   ...       0.05 
freq.     794.45  E(vib)   ...       0.05 
freq.     818.26  E(vib)   ...       0.05 
freq.     844.05  E(vib)   ...       0.04 
freq.     850.42  E(vib)   ...       0.04 
freq.     852.18  E(vib)   ...       0.04 
freq.     854.97  E(vib)   ...       0.04 
freq.     857.67  E(vib)   ...       0.04 
freq.     859.66  E(vib)   ...       0.04 
freq.     873.03  E(vib)   ...       0.04 
freq.     901.82  E(vib)   ...       0.03 
freq.     911.38  E(vib)   ...       0.03 
freq.     928.60  E(vib)   ...       0.03 
freq.     931.12  E(vib)   ...       0.03 
freq.     932.13  E(vib)   ...       0.03 
freq.     939.08  E(vib)   ...       0.03 
freq.     943.45  E(vib)   ...       0.03 
freq.     945.05  E(vib)   ...       0.03 
freq.     948.79  E(vib)   ...       0.03 
freq.     966.17  E(vib)   ...       0.03 
freq.     969.34  E(vib)   ...       0.03 
freq.     970.19  E(vib)   ...       0.03 
freq.     977.62  E(vib)   ...       0.03 
freq.     980.05  E(vib)   ...       0.02 
freq.     985.59  E(vib)   ...       0.02 
freq.     997.96  E(vib)   ...       0.02 
freq.     998.54  E(vib)   ...       0.02 
freq.    1005.19  E(vib)   ...       0.02 
freq.    1009.12  E(vib)   ...       0.02 
freq.    1015.54  E(vib)   ...       0.02 
freq.    1018.97  E(vib)   ...       0.02 
freq.    1026.15  E(vib)   ...       0.02 
freq.    1027.41  E(vib)   ...       0.02 
freq.    1027.83  E(vib)   ...       0.02 
freq.    1045.03  E(vib)   ...       0.02 
freq.    1049.12  E(vib)   ...       0.02 
freq.    1055.14  E(vib)   ...       0.02 
freq.    1055.41  E(vib)   ...       0.02 
freq.    1055.53  E(vib)   ...       0.02 
freq.    1070.66  E(vib)   ...       0.02 
freq.    1099.71  E(vib)   ...       0.02 
freq.    1104.17  E(vib)   ...       0.02 
freq.    1107.58  E(vib)   ...       0.02 
freq.    1114.49  E(vib)   ...       0.01 
freq.    1129.21  E(vib)   ...       0.01 
freq.    1153.19  E(vib)   ...       0.01 
freq.    1164.47  E(vib)   ...       0.01 
freq.    1179.06  E(vib)   ...       0.01 
freq.    1180.32  E(vib)   ...       0.01 
freq.    1184.34  E(vib)   ...       0.01 
freq.    1189.23  E(vib)   ...       0.01 
freq.    1189.49  E(vib)   ...       0.01 
freq.    1194.29  E(vib)   ...       0.01 
freq.    1199.07  E(vib)   ...       0.01 
freq.    1208.32  E(vib)   ...       0.01 
freq.    1209.35  E(vib)   ...       0.01 
freq.    1209.66  E(vib)   ...       0.01 
freq.    1221.77  E(vib)   ...       0.01 
freq.    1223.87  E(vib)   ...       0.01 
freq.    1227.07  E(vib)   ...       0.01 
freq.    1247.11  E(vib)   ...       0.01 
freq.    1266.26  E(vib)   ...       0.01 
freq.    1276.10  E(vib)   ...       0.01 
freq.    1283.82  E(vib)   ...       0.01 
freq.    1298.10  E(vib)   ...       0.01 
freq.    1306.03  E(vib)   ...       0.01 
freq.    1307.05  E(vib)   ...       0.01 
freq.    1317.91  E(vib)   ...       0.01 
freq.    1318.80  E(vib)   ...       0.01 
freq.    1350.65  E(vib)   ...       0.01 
freq.    1356.45  E(vib)   ...       0.01 
freq.    1357.08  E(vib)   ...       0.01 
freq.    1358.77  E(vib)   ...       0.01 
freq.    1360.76  E(vib)   ...       0.01 
freq.    1362.77  E(vib)   ...       0.01 
freq.    1363.64  E(vib)   ...       0.01 
freq.    1366.41  E(vib)   ...       0.01 
freq.    1369.25  E(vib)   ...       0.01 
freq.    1376.71  E(vib)   ...       0.01 
freq.    1404.33  E(vib)   ...       0.00 
freq.    1439.92  E(vib)   ...       0.00 
freq.    1443.53  E(vib)   ...       0.00 
freq.    1467.49  E(vib)   ...       0.00 
freq.    1474.37  E(vib)   ...       0.00 
freq.    1477.05  E(vib)   ...       0.00 
freq.    1477.86  E(vib)   ...       0.00 
freq.    1479.88  E(vib)   ...       0.00 
freq.    1485.40  E(vib)   ...       0.00 
freq.    1486.47  E(vib)   ...       0.00 
freq.    1487.60  E(vib)   ...       0.00 
freq.    1491.51  E(vib)   ...       0.00 
freq.    1493.71  E(vib)   ...       0.00 
freq.    1502.27  E(vib)   ...       0.00 
freq.    1504.56  E(vib)   ...       0.00 
freq.    1507.27  E(vib)   ...       0.00 
freq.    1524.16  E(vib)   ...       0.00 
freq.    1525.68  E(vib)   ...       0.00 
freq.    1526.68  E(vib)   ...       0.00 
freq.    1595.67  E(vib)   ...       0.00 
freq.    1620.26  E(vib)   ...       0.00 
freq.    1623.75  E(vib)   ...       0.00 
freq.    1623.95  E(vib)   ...       0.00 
freq.    1628.06  E(vib)   ...       0.00 
freq.    1637.03  E(vib)   ...       0.00 
freq.    1641.33  E(vib)   ...       0.00 
freq.    1642.34  E(vib)   ...       0.00 
freq.    1750.05  E(vib)   ...       0.00 
freq.    2991.07  E(vib)   ...       0.00 
freq.    2998.50  E(vib)   ...       0.00 
freq.    3005.01  E(vib)   ...       0.00 
freq.    3010.79  E(vib)   ...       0.00 
freq.    3028.77  E(vib)   ...       0.00 
freq.    3032.30  E(vib)   ...       0.00 
freq.    3049.27  E(vib)   ...       0.00 
freq.    3063.90  E(vib)   ...       0.00 
freq.    3085.94  E(vib)   ...       0.00 
freq.    3088.99  E(vib)   ...       0.00 
freq.    3104.53  E(vib)   ...       0.00 
freq.    3107.99  E(vib)   ...       0.00 
freq.    3108.43  E(vib)   ...       0.00 
freq.    3117.76  E(vib)   ...       0.00 
freq.    3127.03  E(vib)   ...       0.00 
freq.    3141.27  E(vib)   ...       0.00 
freq.    3147.27  E(vib)   ...       0.00 
freq.    3150.36  E(vib)   ...       0.00 
freq.    3150.54  E(vib)   ...       0.00 
freq.    3151.73  E(vib)   ...       0.00 
freq.    3156.11  E(vib)   ...       0.00 
freq.    3157.43  E(vib)   ...       0.00 
freq.    3159.20  E(vib)   ...       0.00 
freq.    3159.36  E(vib)   ...       0.00 
freq.    3165.92  E(vib)   ...       0.00 
freq.    3168.82  E(vib)   ...       0.00 
freq.    3169.05  E(vib)   ...       0.00 
freq.    3169.13  E(vib)   ...       0.00 
freq.    3171.53  E(vib)   ...       0.00 
freq.    3178.02  E(vib)   ...       0.00 
freq.    3178.04  E(vib)   ...       0.00 
freq.    3182.89  E(vib)   ...       0.00 
freq.    3185.41  E(vib)   ...       0.00 
freq.    3188.77  E(vib)   ...       0.00 
freq.    3188.86  E(vib)   ...       0.00 

------------
INNER ENERGY
------------

The inner energy is: U= E(el) + E(ZPE) + E(vib) + E(rot) + E(trans)
    E(el)   - is the total energy from the electronic structure calculation
              = E(kin-el) + E(nuc-el) + E(el-el) + E(nuc-nuc)
    E(ZPE)  - the the zero temperature vibrational energy from the frequency calculation
    E(vib)  - the the finite temperature correction to E(ZPE) due to population
              of excited vibrational states
    E(rot)  - is the rotational thermal energy
    E(trans)- is the translational thermal energy

Summary of contributions to the inner energy U:
Electronic energy                ...  -3063.23369936 Eh
Zero point energy                ...      0.60585550 Eh     380.18 kcal/mol
Thermal vibrational correction   ...      0.03124805 Eh      19.61 kcal/mol
Thermal rotational correction    ...      0.00141627 Eh       0.89 kcal/mol
Thermal translational correction ...      0.00141627 Eh       0.89 kcal/mol
-----------------------------------------------------------------------
Total thermal energy                  -3062.59376327 Eh


Summary of corrections to the electronic energy:
(perhaps to be used in another calculation)
Total thermal correction                  0.03408059 Eh      21.39 kcal/mol
Non-thermal (ZPE) correction              0.60585550 Eh     380.18 kcal/mol
-----------------------------------------------------------------------
Total correction                          0.63993609 Eh     401.57 kcal/mol


--------
ENTHALPY
--------

The enthalpy is H = U + kB*T
                kB is Boltzmann's constant
Total thermal energy              ...  -3062.59376327 Eh 
Thermal Enthalpy correction       ...      0.00094421 Eh       0.59 kcal/mol
-----------------------------------------------------------------------
Total Enthalpy                    ...  -3062.59281906 Eh


Note: Only C1 symmetry has been detected, increase convergence thresholds 
      if your molecule has a higher symmetry. Symmetry factor of 1.0 is   
      used for the rotational entropy correction. 
 

Note: Rotational entropy computed according to Herzberg 
Infrared and Raman Spectra, Chapter V,1, Van Nostrand Reinhold, 1945 
Point Group:  C1, Symmetry Number:   1  
Rotational constants in cm-1:     0.003528     0.002842     0.002237 

Vibrational entropy computed according to the QRRHO of S. Grimme
Chem.Eur.J. 2012 18 9955 using a reference frequency of 100.0 cm-1


-------
ENTROPY
-------

The entropy contributions are T*S = T*(S(el)+S(vib)+S(rot)+S(trans))
     S(el)   - electronic entropy
     S(vib)  - vibrational entropy
     S(rot)  - rotational entropy
     S(trans)- translational entropy
The entropies will be listed as multiplied by the temperature to get
units of energy

Electronic entropy                ...      0.00000000 Eh      0.00 kcal/mol
Vibrational entropy               ...      0.05563103 Eh     34.91 kcal/mol
Rotational entropy                ...      0.01782568 Eh     11.19 kcal/mol
Translational entropy             ...      0.02129167 Eh     13.36 kcal/mol
-----------------------------------------------------------------------
Final entropy term                ...      0.09474837 Eh     59.46 kcal/mol

In case the symmetry of your molecule has not been determined correctly
or in case you have a reason to use a different symmetry number we print 
out the resulting rotational entropy values for sn=1,12:

 non-linear molecules -----------------------------------
|  sn= 1 | S(rot)=       0.01782568 Eh     11.19 kcal/mol|
|  sn= 2 | S(rot)=       0.01717122 Eh     10.78 kcal/mol|
|  sn= 3 | S(rot)=       0.01678839 Eh     10.53 kcal/mol|
|  sn= 4 | S(rot)=       0.01651677 Eh     10.36 kcal/mol|
|  sn= 5 | S(rot)=       0.01630608 Eh     10.23 kcal/mol|
|  sn= 6 | S(rot)=       0.01613393 Eh     10.12 kcal/mol|
|  sn= 7 | S(rot)=       0.01598839 Eh     10.03 kcal/mol|
|  sn= 8 | S(rot)=       0.01586231 Eh      9.95 kcal/mol|
|  sn= 9 | S(rot)=       0.01575110 Eh      9.88 kcal/mol|
|  sn=10 | S(rot)=       0.01565162 Eh      9.82 kcal/mol|
|  sn=11 | S(rot)=       0.01556163 Eh      9.77 kcal/mol|
|  sn=12 | S(rot)=       0.01547948 Eh      9.71 kcal/mol|
 linear molecules ---------------------------------------
|  Dinfh | S(rot)=       0.01108795 Eh      6.96 kcal/mol|
|  Cinfv | S(rot)=       0.01174240 Eh      7.37 kcal/mol|
 --------------------------------------------------------


-------------------
GIBBS FREE ENERGY
-------------------

The Gibbs free energy is G = H - T*S

Total enthalpy                    ...  -3062.59281906 Eh 
Total entropy correction          ...     -0.09474837 Eh    -59.46 kcal/mol
-----------------------------------------------------------------------
Final Gibbs free energy         ...  -3062.68756744 Eh

For completeness - the Gibbs free energy minus the electronic energy
G-E(el)                           ...      0.54613193 Eh    342.70 kcal/mol


Maximum memory used throughout the entire PROP-calculation: 174.0 MB
[1769335021.024006] [node067:75017:0]     ucp_context.c:1234 UCX  WARN  transport 'ib' is not available, please use one or more of: mm, posix, self, shm, sm, sysv, tcp
[1769335021.025849] [node067:75015:0]     ucp_context.c:1234 UCX  WARN  transport 'ib' is not available, please use one or more of: mm, posix, self, shm, sm, sysv, tcp
[1769335021.027579] [node067:75014:0]     ucp_context.c:1234 UCX  WARN  transport 'ib' is not available, please use one or more of: mm, posix, self, shm, sm, sysv, tcp
[1769335021.027580] [node067:75016:0]     ucp_context.c:1234 UCX  WARN  transport 'ib' is not available, please use one or more of: mm, posix, self, shm, sm, sysv, tcp
[1769335021.027579] [node067:75018:0]     ucp_context.c:1234 UCX  WARN  transport 'ib' is not available, please use one or more of: mm, posix, self, shm, sm, sysv, tcp
[1769335021.033532] [node067:75019:0]     ucp_context.c:1234 UCX  WARN  transport 'ib' is not available, please use one or more of: mm, posix, self, shm, sm, sysv, tcp
[1769335021.060126] [node067:75020:0]     ucp_context.c:1234 UCX  WARN  transport 'ib' is not available, please use one or more of: mm, posix, self, shm, sm, sysv, tcp
[1769335021.084220] [node067:75033:0]     ucp_context.c:1234 UCX  WARN  transport 'ib' is not available, please use one or more of: mm, posix, self, shm, sm, sysv, tcp

--------------------------------
SUGGESTED CITATIONS FOR THIS RUN
--------------------------------

Below you find a list of papers that are relevant to this ORCA run
We neither can nor want to force you to cite these papers, but we appreciate if you do
You receive ORCA, which is the product of decades of hard work by many enthusiastic individuals, for free
The only thing we kindly ask in return is that you cite our papers,
We deeply appreciate it, if you show your appreciation for ORCA by not just citing the generic ORCA reference.

Please note that relegating all ORCA citations to the supporting information does *not* help us.
SI sections are not indexed - citations you put there will not count into any citation statistics
But we need these citations in order to attract the funding resources that allow us to do what we are doing

Therefore, if you are a happy ORCA user, please consider citing a few of the papers listed below in the main body of your paper

In addition to the list printed below, the program has created the file testpairs_id_1struct_1.bibtex that contains the list in bibtex format
You can import this file easily into all common literature databanks and citation aid programs


List of essential papers. We consider these as the minimum necessary citations

  1. Grimme, S.; Hansen, A.; Ehlert, S.; Mewes, J.
     r2SCAN-3c: A 'Swiss army knife' composite electronic-structure method
     J. Chem. Phys. 2021 154 , 064103
     doi.org/10.1063/5.0040021
  2. Neese, F.
     Software update: the ORCA program system, version 6.0
     WIRES Comput. Molec. Sci. 2025 15(1), e70019
     doi.org/10.1002/wcms.7019

List of papers to cite with high priority. The work reported in these papers was absolutely
necessary for this run to complete.
Our perspective: the developers of density functionals and basis sets usually get cited in chemistry papers
Good! But without the algorithms to do something with them, the functionals or basis sets would not do anything.
Hence, in our opinion, the algorithm design and method developments papers are equally worthy of getting cited

  1. Neese, F.
     An improvement of the resolution of the identity approximation for the formation of the Coulomb matrix
     J. Comp. Chem. 2003 24(14), 1740-1747
     doi.org/10.1002/jcc.10318
  2. Bykov, D.; Petrenko, T.; Izsak, R.; Kossmann, S.; Becker, U.; Valeev, E.; Neese, F.
     Efficient implementation of the analytic second derivatives of Hartree-Fock and hybrid DFT energies: a detailed analysis of different approximations
     Molec. Phys. 2015 113 , 1961-1977
     doi.org/10.1080/00268976.2015.1025114
  3. Caldeweyher, E.; Bannwarth, C.; Grimme, S.
     Extension of the D3 dispersion coefficient model
     J. Chem. Phys. 2017 147 , 034112
     doi.org/10.1063/1.4993215
  4. Lehtola, S.; Steigemann, C.; Oliveira, M.; Marques, M.
     Recent developments in Libxc - A comprehensive library of functionals for density functional theory
     Software X 2018 7 , 
     doi.org/10.1016/j.softx.2017.11.002
  5. Caldeweyher, E.; Ehlert, S.; Hansen, A.; Neugebauer, H.; Spicher, S.; Bannwarth, C.; Grimme, S.
     A generally applicable atomic-charge dependent London dispersion correction
     J. Chem. Phys. 2019 150 , 154122
     doi.org/10.1063/1.5090222
  6. Caldeweyher, E.; Mewes, J.; Ehlert, S.; Grimme, S.
     Extension and evaluation of the D4 London-dispersion model for periodic systems
     Phys. Chem. Chem. Phys. 2020 22(16), 8499-8512
     doi.org/10.1039/D0CP00502A
  7. Neese, F.
     The SHARK Integral Generation and Digestion System
     J. Comp. Chem. 2022 44(3), 381
     doi.org/10.1002/jcc.26942
  8. Wittmann, L.; Gordiy, I.; Friede, M.; Helmich-Paris, B.; Grimme, S.; Hansen, A.; Bursch, M.
     Extension of the D3 and D4 London Dispersion Corrections to the full Actinides Series
     Phys. Chem. Chem. Phys. 2024 26(32), 21379-21394
     doi.org/10.1039/D4CP01514B

List of suggested additional citations. These are papers that are important in the 'surrounding' of 
of this run, or papers that preceded the highly important papers. If you like your results we are grateful for a citation.

  1. Neese, F.
     The ORCA program system
     WIRES Comput. Molec. Sci. 2012 2(1), 73-78
     doi.org/10.1002/wcms.81
  2. Neese, F.
     Software update: the ORCA program system, version 4.0
     WIRES Comput. Molec. Sci. 2018 8(1), 1-6
     doi.org/10.1002/wcms.1327
  3. Neese, F.; Wennmohs, F.; Becker, U.; Riplinger, C.
     The ORCA quantum chemistry program package
     J. Chem. Phys. 2020 152(22), 224108
     doi.org/10.1063/5.0004608
  4. Neese, F.
     Software update: The ORCA program system—Version 5.0
     WIRES Comput. Molec. Sci. 2022 12(1), e1606
     doi.org/10.1002/wcms.1606

List of optional additional citations

  1. Neese, F.
     Approximate second-order SCF convergence for spin unrestricted wavefunctions
     Chem. Phys. Lett. 2000 325(1-3), 93-98
     doi.org/10.1016/s0009-2614(00)00662-x

Timings for individual modules:

Sum of individual times          ...     5654.897 sec (=  94.248 min)
Startup calculation              ...       78.216 sec (=   1.304 min)   1.4 %
SCF iterations                   ...      887.362 sec (=  14.789 min)  15.7 %
Property integrals               ...     1422.505 sec (=  23.708 min)  25.2 %
SCF Response                     ...     2431.378 sec (=  40.523 min)  43.0 %
Property calculations            ...      512.423 sec (=   8.540 min)   9.1 %
SCF Gradient evaluation          ...      321.442 sec (=   5.357 min)   5.7 %
Geometry relaxation              ...        1.571 sec (=   0.026 min)   0.0 %
                             ****ORCA TERMINATED NORMALLY****
TOTAL RUN TIME: 0 days 1 hours 34 minutes 39 seconds 140 msec
